PROCAR new format
# of k-points:  110         # of bands:   12         # of ions:    1

 k-point     1 :    0.05000000 0.05000000 0.05000000     weight = 0.00200000

band     1 # energy   -3.99570017 # occ.  2.00000000
 
ion      s      p      d    tot
    1  0.745  0.006  0.000  0.751
 
band     2 # energy    1.62514192 # occ.  2.00000000
 
ion      s      p      d    tot
    1  0.000  0.001  0.956  0.958
 
band     3 # energy    1.69785252 # occ.  2.00000000
 
ion      s      p      d    tot
    1  0.000  0.000  0.959  0.959
 
band     4 # energy    1.69785252 # occ.  2.00000000
 
ion      s      p      d    tot
    1  0.000  0.000  0.959  0.959
 
band     5 # energy    3.47973053 # occ.  2.00000000
 
ion      s      p      d    tot
    1  0.000  0.000  0.972  0.972
 
band     6 # energy    3.47973053 # occ.  2.00000000
 
ion      s      p      d    tot
    1  0.000  0.000  0.972  0.972
 
band     7 # energy   22.38444916 # occ.  0.00000000
 
ion      s      p      d    tot
    1  0.000  0.000  0.011  0.011
 
band     8 # energy   26.02874483 # occ.  0.00000000
 
ion      s      p      d    tot
    1  0.013  0.181  0.012  0.206
 
band     9 # energy   26.83756546 # occ.  0.00000000
 
ion      s      p      d    tot
    1  0.000  0.196  0.008  0.205
 
band    10 # energy   26.83756546 # occ.  0.00000000
 
ion      s      p      d    tot
    1  0.000  0.196  0.008  0.205
 
band    11 # energy   31.88858424 # occ.  0.00000000
 
ion      s      p      d    tot
    1  0.043  0.047  0.009  0.099
 
band    12 # energy   35.77841218 # occ.  0.00000000
 
ion      s      p      d    tot
    1  0.009  0.169  0.448  0.626
 

 k-point     2 :    0.15000000 0.05000000 0.05000000     weight = 0.00600000

band     1 # energy   -3.49815822 # occ.  2.00000000
 
ion      s      p      d    tot
    1  0.714  0.034  0.004  0.753
 
band     2 # energy    1.43881847 # occ.  2.00000000
 
ion      s      p      d    tot
    1  0.001  0.008  0.941  0.949
 
band     3 # energy    1.85826111 # occ.  2.00000000
 
ion      s      p      d    tot
    1  0.000  0.000  0.958  0.958
 
band     4 # energy    1.89484821 # occ.  2.00000000
 
ion      s      p      d    tot
    1  0.001  0.006  0.951  0.957
 
band     5 # energy    3.29826022 # occ.  2.00000000
 
ion      s      p      d    tot
    1  0.000  0.000  0.965  0.965
 
band     6 # energy    3.53584974 # occ.  2.00000000
 
ion      s      p      d    tot
    1  0.000  0.000  0.968  0.969
 
band     7 # energy   22.90401528 # occ.  0.00000000
 
ion      s      p      d    tot
    1  0.002  0.019  0.084  0.104
 
band     8 # energy   24.00701413 # occ.  0.00000000
 
ion      s      p      d    tot
    1  0.042  0.168  0.039  0.249
 
band     9 # energy   26.60385465 # occ.  0.00000000
 
ion      s      p      d    tot
    1  0.000  0.260  0.057  0.318
 
band    10 # energy   27.86749855 # occ.  0.00000000
 
ion      s      p      d    tot
    1  0.000  0.185  0.045  0.230
 
band    11 # energy   31.75423630 # occ.  0.00000000
 
ion      s      p      d    tot
    1  0.002  0.309  0.170  0.480
 
band    12 # energy   34.52512263 # occ.  0.00000000
 
ion      s      p      d    tot
    1  0.002  0.189  0.277  0.468
 

 k-point     3 :    0.25000000 0.05000000 0.05000000     weight = 0.00600000

band     1 # energy   -2.43368144 # occ.  2.00000000
 
ion      s      p      d    tot
    1  0.621  0.080  0.067  0.767
 
band     2 # energy    1.29168318 # occ.  2.00000000
 
ion      s      p      d    tot
    1  0.019  0.047  0.858  0.923
 
band     3 # energy    2.03254276 # occ.  2.00000000
 
ion      s      p      d    tot
    1  0.002  0.010  0.940  0.951
 
band     4 # energy    2.06074097 # occ.  2.00000000
 
ion      s      p      d    tot
    1  0.000  0.001  0.954  0.955
 
band     5 # energy    3.30670230 # occ.  2.00000000
 
ion      s      p      d    tot
    1  0.000  0.002  0.956  0.958
 
band     6 # energy    3.78683241 # occ.  2.00000000
 
ion      s      p      d    tot
    1  0.004  0.004  0.956  0.964
 
band     7 # energy   20.30588588 # occ.  0.00000000
 
ion      s      p      d    tot
    1  0.101  0.268  0.168  0.537
 
band     8 # energy   23.58510484 # occ.  0.00000000
 
ion      s      p      d    tot
    1  0.001  0.023  0.117  0.141
 
band     9 # energy   27.04972816 # occ.  0.00000000
 
ion      s      p      d    tot
    1  0.003  0.371  0.133  0.507
 
band    10 # energy   29.36452528 # occ.  0.00000000
 
ion      s      p      d    tot
    1  0.024  0.223  0.047  0.294
 
band    11 # energy   29.49524986 # occ.  0.00000000
 
ion      s      p      d    tot
    1  0.000  0.255  0.140  0.395
 
band    12 # energy   32.24429622 # occ.  0.00000000
 
ion      s      p      d    tot
    1  0.000  0.276  0.241  0.517
 

 k-point     4 :    0.35000000 0.05000000 0.05000000     weight = 0.00600000

band     1 # energy   -1.51834760 # occ.  2.00000000
 
ion      s      p      d    tot
    1  0.409  0.057  0.361  0.827
 
band     2 # energy    1.81743726 # occ.  2.00000000
 
ion      s      p      d    tot
    1  0.020  0.031  0.887  0.937
 
band     3 # energy    1.92331663 # occ.  2.00000000
 
ion      s      p      d    tot
    1  0.000  0.000  0.950  0.950
 
band     4 # energy    2.03848890 # occ.  2.00000000
 
ion      s      p      d    tot
    1  0.091  0.173  0.595  0.859
 
band     5 # energy    3.88652822 # occ.  2.00000000
 
ion      s      p      d    tot
    1  0.000  0.003  0.957  0.960
 
band     6 # energy    4.45570502 # occ.  2.00000000
 
ion      s      p      d    tot
    1  0.015  0.019  0.927  0.961
 
band     7 # energy   16.24398693 # occ.  0.00000000
 
ion      s      p      d    tot
    1  0.203  0.294  0.226  0.723
 
band     8 # energy   22.81066779 # occ.  0.00000000
 
ion      s      p      d    tot
    1  0.000  0.038  0.075  0.113
 
band     9 # energy   26.15172769 # occ.  0.00000000
 
ion      s      p      d    tot
    1  0.010  0.485  0.119  0.614
 
band    10 # energy   28.53467395 # occ.  0.00000000
 
ion      s      p      d    tot
    1  0.000  0.513  0.104  0.616
 
band    11 # energy   30.57487714 # occ.  0.00000000
 
ion      s      p      d    tot
    1  0.024  0.077  0.137  0.238
 
band    12 # energy   31.91363704 # occ.  0.00000000
 
ion      s      p      d    tot
    1  0.000  0.009  0.375  0.384
 

 k-point     5 :    0.45000000 0.05000000 0.05000000     weight = 0.00600000

band     1 # energy   -1.31678698 # occ.  2.00000000
 
ion      s      p      d    tot
    1  0.252  0.013  0.613  0.878
 
band     2 # energy    1.64158681 # occ.  2.00000000
 
ion      s      p      d    tot
    1  0.000  0.002  0.944  0.946
 
band     3 # energy    1.72446687 # occ.  2.00000000
 
ion      s      p      d    tot
    1  0.000  0.000  0.948  0.948
 
band     4 # energy    3.71234228 # occ.  2.00000000
 
ion      s      p      d    tot
    1  0.070  0.316  0.432  0.818
 
band     5 # energy    4.59996947 # occ.  2.00000000
 
ion      s      p      d    tot
    1  0.000  0.002  0.968  0.970
 
band     6 # energy    5.37673048 # occ.  2.00000000
 
ion      s      p      d    tot
    1  0.052  0.153  0.700  0.905
 
band     7 # energy   12.33932024 # occ. -0.00000000
 
ion      s      p      d    tot
    1  0.358  0.177  0.303  0.838
 
band     8 # energy   21.90954483 # occ.  0.00000000
 
ion      s      p      d    tot
    1  0.000  0.029  0.027  0.056
 
band     9 # energy   25.06064277 # occ.  0.00000000
 
ion      s      p      d    tot
    1  0.008  0.499  0.051  0.559
 
band    10 # energy   26.22569736 # occ.  0.00000000
 
ion      s      p      d    tot
    1  0.000  0.500  0.036  0.536
 
band    11 # energy   32.73847282 # occ.  0.00000000
 
ion      s      p      d    tot
    1  0.013  0.012  0.413  0.438
 
band    12 # energy   33.17742120 # occ.  0.00000000
 
ion      s      p      d    tot
    1  0.000  0.007  0.565  0.572
 

 k-point     6 :   -0.45000000 0.05000000 0.05000000     weight = 0.00600000

band     1 # energy   -1.31976219 # occ.  2.00000000
 
ion      s      p      d    tot
    1  0.222  0.004  0.661  0.887
 
band     2 # energy    1.56291763 # occ.  2.00000000
 
ion      s      p      d    tot
    1  0.000  0.001  0.943  0.944
 
band     3 # energy    1.67788581 # occ.  2.00000000
 
ion      s      p      d    tot
    1  0.000  0.001  0.947  0.947
 
band     4 # energy    4.25582808 # occ.  2.00000000
 
ion      s      p      d    tot
    1  0.003  0.216  0.658  0.876
 
band     5 # energy    4.94513087 # occ.  2.00000000
 
ion      s      p      d    tot
    1  0.000  0.000  0.977  0.977
 
band     6 # energy    6.12171837 # occ.  2.00000001
 
ion      s      p      d    tot
    1  0.008  0.446  0.332  0.786
 
band     7 # energy   10.67468221 # occ. -0.00000000
 
ion      s      p      d    tot
    1  0.497  0.015  0.393  0.905
 
band     8 # energy   21.66175681 # occ.  0.00000000
 
ion      s      p      d    tot
    1  0.000  0.026  0.015  0.041
 
band     9 # energy   25.08349218 # occ.  0.00000000
 
ion      s      p      d    tot
    1  0.008  0.494  0.031  0.533
 
band    10 # energy   25.19009420 # occ.  0.00000000
 
ion      s      p      d    tot
    1  0.000  0.507  0.016  0.523
 
band    11 # energy   33.40517955 # occ.  0.00000000
 
ion      s      p      d    tot
    1  0.000  0.000  0.570  0.570
 
band    12 # energy   33.50867911 # occ.  0.00000000
 
ion      s      p      d    tot
    1  0.001  0.001  0.583  0.585
 

 k-point     7 :   -0.35000000 0.05000000 0.05000000     weight = 0.00600000

band     1 # energy   -1.33670565 # occ.  2.00000000
 
ion      s      p      d    tot
    1  0.286  0.023  0.558  0.867
 
band     2 # energy    1.67657641 # occ.  2.00000000
 
ion      s      p      d    tot
    1  0.000  0.000  0.945  0.946
 
band     3 # energy    1.80946958 # occ.  2.00000000
 
ion      s      p      d    tot
    1  0.000  0.002  0.947  0.949
 
band     4 # energy    3.07457502 # occ.  2.00000000
 
ion      s      p      d    tot
    1  0.105  0.287  0.427  0.819
 
band     5 # energy    4.69964873 # occ.  2.00000000
 
ion      s      p      d    tot
    1  0.000  0.002  0.971  0.973
 
band     6 # energy    4.77681885 # occ.  2.00000000
 
ion      s      p      d    tot
    1  0.045  0.093  0.787  0.925
 
band     7 # energy   13.55154130 # occ.  0.00000000
 
ion      s      p      d    tot
    1  0.298  0.236  0.269  0.803
 
band     8 # energy   22.16738965 # occ.  0.00000000
 
ion      s      p      d    tot
    1  0.000  0.029  0.033  0.062
 
band     9 # energy   25.59584993 # occ.  0.00000000
 
ion      s      p      d    tot
    1  0.000  0.511  0.069  0.580
 
band    10 # energy   26.49113259 # occ.  0.00000000
 
ion      s      p      d    tot
    1  0.012  0.477  0.076  0.565
 
band    11 # energy   32.69271698 # occ.  0.00000000
 
ion      s      p      d    tot
    1  0.008  0.048  0.398  0.454
 
band    12 # energy   32.76287759 # occ.  0.00000000
 
ion      s      p      d    tot
    1  0.000  0.000  0.391  0.392
 

 k-point     8 :   -0.25000000 0.05000000 0.05000000     weight = 0.00600000

band     1 # energy   -1.74314787 # occ.  2.00000000
 
ion      s      p      d    tot
    1  0.489  0.075  0.239  0.803
 
band     2 # energy    1.57152704 # occ.  2.00000000
 
ion      s      p      d    tot
    1  0.072  0.121  0.692  0.885
 
band     3 # energy    1.93565293 # occ.  2.00000000
 
ion      s      p      d    tot
    1  0.004  0.012  0.927  0.943
 
band     4 # energy    2.01394012 # occ.  2.00000000
 
ion      s      p      d    tot
    1  0.000  0.004  0.948  0.952
 
band     5 # energy    3.77101778 # occ.  2.00000000
 
ion      s      p      d    tot
    1  0.012  0.015  0.926  0.953
 
band     6 # energy    4.09702631 # occ.  2.00000000
 
ion      s      p      d    tot
    1  0.000  0.003  0.963  0.966
 
band     7 # energy   17.62208061 # occ.  0.00000000
 
ion      s      p      d    tot
    1  0.164  0.299  0.209  0.672
 
band     8 # energy   23.21152513 # occ.  0.00000000
 
ion      s      p      d    tot
    1  0.000  0.029  0.088  0.117
 
band     9 # energy   26.72309995 # occ.  0.00000000
 
ion      s      p      d    tot
    1  0.000  0.478  0.161  0.640
 
band    10 # energy   28.63456620 # occ.  0.00000000
 
ion      s      p      d    tot
    1  0.028  0.396  0.124  0.548
 
band    11 # energy   30.31592515 # occ.  0.00000000
 
ion      s      p      d    tot
    1  0.004  0.204  0.132  0.340
 
band    12 # energy   32.08723798 # occ.  0.00000000
 
ion      s      p      d    tot
    1  0.000  0.026  0.188  0.214
 

 k-point     9 :   -0.15000000 0.05000000 0.05000000     weight = 0.00600000

band     1 # energy   -2.82229228 # occ.  2.00000000
 
ion      s      p      d    tot
    1  0.662  0.067  0.030  0.759
 
band     2 # energy    1.28233184 # occ.  2.00000000
 
ion      s      p      d    tot
    1  0.008  0.025  0.902  0.935
 
band     3 # energy    2.02422073 # occ.  2.00000000
 
ion      s      p      d    tot
    1  0.001  0.005  0.948  0.954
 
band     4 # energy    2.04012164 # occ.  2.00000000
 
ion      s      p      d    tot
    1  0.000  0.005  0.951  0.956
 
band     5 # energy    3.25431907 # occ.  2.00000000
 
ion      s      p      d    tot
    1  0.003  0.003  0.953  0.958
 
band     6 # energy    3.64106756 # occ.  2.00000000
 
ion      s      p      d    tot
    1  0.000  0.001  0.965  0.966
 
band     7 # energy   21.57186342 # occ.  0.00000000
 
ion      s      p      d    tot
    1  0.073  0.240  0.151  0.464
 
band     8 # energy   23.60864942 # occ.  0.00000000
 
ion      s      p      d    tot
    1  0.004  0.003  0.080  0.086
 
band     9 # energy   27.02322623 # occ.  0.00000000
 
ion      s      p      d    tot
    1  0.000  0.335  0.132  0.468
 
band    10 # energy   28.41022995 # occ.  0.00000000
 
ion      s      p      d    tot
    1  0.000  0.192  0.092  0.284
 
band    11 # energy   30.37802347 # occ.  0.00000000
 
ion      s      p      d    tot
    1  0.026  0.338  0.076  0.440
 
band    12 # energy   32.93695059 # occ.  0.00000000
 
ion      s      p      d    tot
    1  0.000  0.144  0.198  0.342
 

 k-point    10 :   -0.05000000 0.05000000 0.05000000     weight = 0.00600000

band     1 # energy   -3.74231629 # occ.  2.00000000
 
ion      s      p      d    tot
    1  0.730  0.021  0.001  0.752
 
band     2 # energy    1.49488360 # occ.  2.00000000
 
ion      s      p      d    tot
    1  0.000  0.002  0.951  0.954
 
band     3 # energy    1.80891645 # occ.  2.00000000
 
ion      s      p      d    tot
    1  0.000  0.002  0.955  0.958
 
band     4 # energy    1.81358166 # occ.  2.00000000
 
ion      s      p      d    tot
    1  0.000  0.003  0.955  0.958
 
band     5 # energy    3.32777233 # occ.  2.00000000
 
ion      s      p      d    tot
    1  0.000  0.000  0.966  0.967
 
band     6 # energy    3.54725464 # occ.  2.00000000
 
ion      s      p      d    tot
    1  0.000  0.000  0.972  0.972
 
band     7 # energy   22.69512791 # occ.  0.00000000
 
ion      s      p      d    tot
    1  0.000  0.002  0.040  0.042
 
band     8 # energy   25.09353604 # occ.  0.00000000
 
ion      s      p      d    tot
    1  0.029  0.164  0.031  0.225
 
band     9 # energy   26.67171897 # occ.  0.00000000
 
ion      s      p      d    tot
    1  0.000  0.236  0.040  0.276
 
band    10 # energy   27.01222328 # occ.  0.00000000
 
ion      s      p      d    tot
    1  0.002  0.201  0.032  0.234
 
band    11 # energy   32.79747346 # occ.  0.00000000
 
ion      s      p      d    tot
    1  0.007  0.205  0.088  0.300
 
band    12 # energy   34.86938378 # occ.  0.00000000
 
ion      s      p      d    tot
    1  0.001  0.175  0.378  0.555
 

 k-point    11 :    0.15000000 0.15000000 0.05000000     weight = 0.00600000

band     1 # energy   -3.25152850 # occ.  2.00000000
 
ion      s      p      d    tot
    1  0.698  0.049  0.006  0.753
 
band     2 # energy    1.23756960 # occ.  2.00000000
 
ion      s      p      d    tot
    1  0.000  0.002  0.945  0.947
 
band     3 # energy    2.04069649 # occ.  2.00000000
 
ion      s      p      d    tot
    1  0.000  0.007  0.948  0.956
 
band     4 # energy    2.04525016 # occ.  2.00000000
 
ion      s      p      d    tot
    1  0.000  0.007  0.949  0.956
 
band     5 # energy    3.06405795 # occ.  2.00000000
 
ion      s      p      d    tot
    1  0.003  0.002  0.952  0.957
 
band     6 # energy    3.67652060 # occ.  2.00000000
 
ion      s      p      d    tot
    1  0.000  0.000  0.972  0.972
 
band     7 # energy   23.24760250 # occ.  0.00000000
 
ion      s      p      d    tot
    1  0.001  0.015  0.104  0.121
 
band     8 # energy   24.20196419 # occ.  0.00000000
 
ion      s      p      d    tot
    1  0.044  0.146  0.059  0.248
 
band     9 # energy   26.15203232 # occ.  0.00000000
 
ion      s      p      d    tot
    1  0.000  0.313  0.100  0.413
 
band    10 # energy   26.68993058 # occ.  0.00000000
 
ion      s      p      d    tot
    1  0.003  0.232  0.086  0.321
 
band    11 # energy   32.38308466 # occ.  0.00000000
 
ion      s      p      d    tot
    1  0.035  0.419  0.099  0.554
 
band    12 # energy   33.81063858 # occ.  0.00000000
 
ion      s      p      d    tot
    1  0.000  0.147  0.234  0.381
 

 k-point    12 :    0.25000000 0.15000000 0.05000000     weight = 0.01200000

band     1 # energy   -2.36416263 # occ.  2.00000000
 
ion      s      p      d    tot
    1  0.628  0.093  0.039  0.760
 
band     2 # energy    0.94482022 # occ.  2.00000000
 
ion      s      p      d    tot
    1  0.001  0.011  0.924  0.937
 
band     3 # energy    2.15161522 # occ.  2.00000000
 
ion      s      p      d    tot
    1  0.000  0.010  0.937  0.947
 
band     4 # energy    2.37030229 # occ.  2.00000000
 
ion      s      p      d    tot
    1  0.000  0.009  0.945  0.954
 
band     5 # energy    2.99669030 # occ.  2.00000000
 
ion      s      p      d    tot
    1  0.015  0.013  0.921  0.948
 
band     6 # energy    3.93610192 # occ.  2.00000000
 
ion      s      p      d    tot
    1  0.003  0.003  0.963  0.969
 
band     7 # energy   21.84921296 # occ.  0.00000000
 
ion      s      p      d    tot
    1  0.079  0.244  0.140  0.463
 
band     8 # energy   23.61092850 # occ.  0.00000000
 
ion      s      p      d    tot
    1  0.004  0.137  0.218  0.360
 
band     9 # energy   25.62433593 # occ.  0.00000000
 
ion      s      p      d    tot
    1  0.000  0.276  0.093  0.369
 
band    10 # energy   26.93244932 # occ.  0.00000000
 
ion      s      p      d    tot
    1  0.004  0.186  0.146  0.336
 
band    11 # energy   30.33362697 # occ.  0.00000000
 
ion      s      p      d    tot
    1  0.087  0.471  0.017  0.575
 
band    12 # energy   32.94742083 # occ.  0.00000000
 
ion      s      p      d    tot
    1  0.010  0.201  0.189  0.400
 

 k-point    13 :    0.35000000 0.15000000 0.05000000     weight = 0.01200000

band     1 # energy   -1.29808418 # occ.  2.00000000
 
ion      s      p      d    tot
    1  0.456  0.102  0.243  0.801
 
band     2 # energy    1.03786632 # occ.  2.00000000
 
ion      s      p      d    tot
    1  0.044  0.077  0.781  0.902
 
band     3 # energy    1.78871053 # occ.  2.00000000
 
ion      s      p      d    tot
    1  0.001  0.008  0.927  0.936
 
band     4 # energy    2.38093045 # occ.  2.00000000
 
ion      s      p      d    tot
    1  0.002  0.010  0.939  0.951
 
band     5 # energy    3.76766941 # occ.  2.00000000
 
ion      s      p      d    tot
    1  0.026  0.034  0.884  0.944
 
band     6 # energy    4.61374329 # occ.  2.00000000
 
ion      s      p      d    tot
    1  0.027  0.024  0.910  0.961
 
band     7 # energy   17.86294900 # occ.  0.00000000
 
ion      s      p      d    tot
    1  0.163  0.322  0.194  0.678
 
band     8 # energy   23.08743896 # occ.  0.00000000
 
ion      s      p      d    tot
    1  0.003  0.185  0.205  0.392
 
band     9 # energy   24.57938558 # occ.  0.00000000
 
ion      s      p      d    tot
    1  0.016  0.332  0.107  0.455
 
band    10 # energy   27.05579988 # occ.  0.00000000
 
ion      s      p      d    tot
    1  0.036  0.243  0.186  0.465
 
band    11 # energy   30.87415021 # occ.  0.00000000
 
ion      s      p      d    tot
    1  0.023  0.431  0.017  0.472
 
band    12 # energy   32.50215514 # occ.  0.00000000
 
ion      s      p      d    tot
    1  0.010  0.016  0.239  0.265
 

 k-point    14 :    0.45000000 0.15000000 0.05000000     weight = 0.01200000

band     1 # energy   -0.92033504 # occ.  2.00000000
 
ion      s      p      d    tot
    1  0.247  0.042  0.580  0.869
 
band     2 # energy    1.43063119 # occ.  2.00000000
 
ion      s      p      d    tot
    1  0.000  0.012  0.914  0.926
 
band     3 # energy    2.04553979 # occ.  2.00000000
 
ion      s      p      d    tot
    1  0.044  0.116  0.734  0.894
 
band     4 # energy    2.23540854 # occ.  2.00000000
 
ion      s      p      d    tot
    1  0.031  0.074  0.810  0.915
 
band     5 # energy    4.66913675 # occ.  2.00000000
 
ion      s      p      d    tot
    1  0.005  0.019  0.941  0.964
 
band     6 # energy    5.88857780 # occ.  2.00000000
 
ion      s      p      d    tot
    1  0.101  0.148  0.657  0.906
 
band     7 # energy   13.72031412 # occ.  0.00000000
 
ion      s      p      d    tot
    1  0.285  0.266  0.236  0.787
 
band     8 # energy   22.34359346 # occ.  0.00000000
 
ion      s      p      d    tot
    1  0.000  0.098  0.138  0.236
 
band     9 # energy   23.43283005 # occ.  0.00000000
 
ion      s      p      d    tot
    1  0.027  0.453  0.109  0.589
 
band    10 # energy   25.73207289 # occ.  0.00000000
 
ion      s      p      d    tot
    1  0.023  0.415  0.130  0.568
 
band    11 # energy   32.57403369 # occ.  0.00000000
 
ion      s      p      d    tot
    1  0.002  0.068  0.230  0.301
 
band    12 # energy   33.92181828 # occ.  0.00000000
 
ion      s      p      d    tot
    1  0.008  0.049  0.396  0.453
 

 k-point    15 :   -0.45000000 0.15000000 0.05000000     weight = 0.01200000

band     1 # energy   -0.90920556 # occ.  2.00000000
 
ion      s      p      d    tot
    1  0.190  0.024  0.675  0.889
 
band     2 # energy    1.28051791 # occ.  2.00000000
 
ion      s      p      d    tot
    1  0.000  0.011  0.914  0.926
 
band     3 # energy    2.02660944 # occ.  2.00000000
 
ion      s      p      d    tot
    1  0.000  0.006  0.939  0.945
 
band     4 # energy    3.04509424 # occ.  2.00000000
 
ion      s      p      d    tot
    1  0.003  0.212  0.656  0.871
 
band     5 # energy    4.88803375 # occ.  2.00000000
 
ion      s      p      d    tot
    1  0.001  0.001  0.974  0.975
 
band     6 # energy    7.76086269 # occ. -0.00000165
 
ion      s      p      d    tot
    1  0.013  0.429  0.360  0.803
 
band     7 # energy   10.61726187 # occ. -0.00000000
 
ion      s      p      d    tot
    1  0.500  0.030  0.357  0.887
 
band     8 # energy   21.83773576 # occ.  0.00000000
 
ion      s      p      d    tot
    1  0.004  0.104  0.125  0.233
 
band     9 # energy   23.11050947 # occ.  0.00000000
 
ion      s      p      d    tot
    1  0.036  0.456  0.117  0.609
 
band    10 # energy   24.75750923 # occ.  0.00000000
 
ion      s      p      d    tot
    1  0.002  0.453  0.038  0.492
 
band    11 # energy   33.31195740 # occ.  0.00000000
 
ion      s      p      d    tot
    1  0.008  0.004  0.474  0.486
 
band    12 # energy   34.29213187 # occ.  0.00000000
 
ion      s      p      d    tot
    1  0.001  0.004  0.407  0.413
 

 k-point    16 :   -0.35000000 0.15000000 0.05000000     weight = 0.01200000

band     1 # energy   -0.88334599 # occ.  2.00000000
 
ion      s      p      d    tot
    1  0.219  0.034  0.627  0.879
 
band     2 # energy    1.37603132 # occ.  2.00000000
 
ion      s      p      d    tot
    1  0.000  0.009  0.921  0.930
 
band     3 # energy    2.05502653 # occ.  2.00000000
 
ion      s      p      d    tot
    1  0.000  0.007  0.937  0.944
 
band     4 # energy    2.66060346 # occ.  2.00000000
 
ion      s      p      d    tot
    1  0.044  0.221  0.590  0.855
 
band     5 # energy    4.49749538 # occ.  2.00000000
 
ion      s      p      d    tot
    1  0.001  0.010  0.954  0.964
 
band     6 # energy    6.65047988 # occ.  2.02798034
 
ion      s      p      d    tot
    1  0.116  0.194  0.575  0.886
 
band     7 # energy   12.53881550 # occ.  0.00000000
 
ion      s      p      d    tot
    1  0.332  0.216  0.271  0.819
 
band     8 # energy   21.73711978 # occ.  0.00000000
 
ion      s      p      d    tot
    1  0.010  0.217  0.170  0.397
 
band     9 # energy   23.26946855 # occ.  0.00000000
 
ion      s      p      d    tot
    1  0.028  0.318  0.057  0.403
 
band    10 # energy   25.87924287 # occ.  0.00000000
 
ion      s      p      d    tot
    1  0.003  0.470  0.086  0.559
 
band    11 # energy   32.24473789 # occ.  0.00000000
 
ion      s      p      d    tot
    1  0.010  0.031  0.297  0.337
 
band    12 # energy   34.00417329 # occ.  0.00000000
 
ion      s      p      d    tot
    1  0.000  0.017  0.466  0.483
 

 k-point    17 :   -0.25000000 0.15000000 0.05000000     weight = 0.01200000

band     1 # energy   -1.04779011 # occ.  2.00000000
 
ion      s      p      d    tot
    1  0.381  0.085  0.360  0.826
 
band     2 # energy    1.36383369 # occ.  2.00000000
 
ion      s      p      d    tot
    1  0.059  0.100  0.739  0.898
 
band     3 # energy    1.72043118 # occ.  2.00000000
 
ion      s      p      d    tot
    1  0.009  0.042  0.864  0.915
 
band     4 # energy    2.27783312 # occ.  2.00000000
 
ion      s      p      d    tot
    1  0.004  0.008  0.934  0.946
 
band     5 # energy    3.66956544 # occ.  2.00000000
 
ion      s      p      d    tot
    1  0.007  0.014  0.931  0.952
 
band     6 # energy    5.23233873 # occ.  2.00000000
 
ion      s      p      d    tot
    1  0.061  0.051  0.839  0.951
 
band     7 # energy   16.48448285 # occ.  0.00000000
 
ion      s      p      d    tot
    1  0.202  0.311  0.205  0.718
 
band     8 # energy   22.14209631 # occ.  0.00000000
 
ion      s      p      d    tot
    1  0.011  0.268  0.232  0.511
 
band     9 # energy   24.35137618 # occ.  0.00000000
 
ion      s      p      d    tot
    1  0.023  0.255  0.042  0.320
 
band    10 # energy   27.99998703 # occ.  0.00000000
 
ion      s      p      d    tot
    1  0.012  0.326  0.163  0.501
 
band    11 # energy   30.21167877 # occ.  0.00000000
 
ion      s      p      d    tot
    1  0.001  0.212  0.100  0.314
 
band    12 # energy   33.04966593 # occ.  0.00000000
 
ion      s      p      d    tot
    1  0.007  0.095  0.344  0.445
 

 k-point    18 :   -0.15000000 0.15000000 0.05000000     weight = 0.01200000

band     1 # energy   -1.98153083 # occ.  2.00000000
 
ion      s      p      d    tot
    1  0.592  0.106  0.069  0.767
 
band     2 # energy    0.99351132 # occ.  2.00000000
 
ion      s      p      d    tot
    1  0.004  0.027  0.900  0.931
 
band     3 # energy    2.02271304 # occ.  2.00000000
 
ion      s      p      d    tot
    1  0.002  0.017  0.923  0.941
 
band     4 # energy    2.39818535 # occ.  2.00000000
 
ion      s      p      d    tot
    1  0.000  0.003  0.951  0.954
 
band     5 # energy    2.99184258 # occ.  2.00000000
 
ion      s      p      d    tot
    1  0.006  0.008  0.936  0.950
 
band     6 # energy    4.24327942 # occ.  2.00000000
 
ion      s      p      d    tot
    1  0.017  0.013  0.934  0.964
 
band     7 # energy   20.44539911 # occ.  0.00000000
 
ion      s      p      d    tot
    1  0.117  0.265  0.145  0.527
 
band     8 # energy   22.82789584 # occ.  0.00000000
 
ion      s      p      d    tot
    1  0.005  0.243  0.279  0.526
 
band     9 # energy   26.12415802 # occ.  0.00000000
 
ion      s      p      d    tot
    1  0.008  0.224  0.046  0.278
 
band    10 # energy   27.18471707 # occ.  0.00000000
 
ion      s      p      d    tot
    1  0.018  0.169  0.073  0.260
 
band    11 # energy   31.06440541 # occ.  0.00000000
 
ion      s      p      d    tot
    1  0.014  0.127  0.151  0.291
 
band    12 # energy   32.17124642 # occ.  0.00000000
 
ion      s      p      d    tot
    1  0.014  0.558  0.156  0.728
 

 k-point    19 :   -0.05000000 0.15000000 0.05000000     weight = 0.01200000

band     1 # energy   -3.02551902 # occ.  2.00000000
 
ion      s      p      d    tot
    1  0.682  0.060  0.014  0.756
 
band     2 # energy    1.24158308 # occ.  2.00000000
 
ion      s      p      d    tot
    1  0.001  0.010  0.932  0.943
 
band     3 # energy    2.04259277 # occ.  2.00000000
 
ion      s      p      d    tot
    1  0.001  0.009  0.943  0.953
 
band     4 # energy    2.05741306 # occ.  2.00000000
 
ion      s      p      d    tot
    1  0.000  0.004  0.952  0.956
 
band     5 # energy    3.11289045 # occ.  2.00000000
 
ion      s      p      d    tot
    1  0.002  0.002  0.953  0.958
 
band     6 # energy    3.68694264 # occ.  2.00000000
 
ion      s      p      d    tot
    1  0.001  0.001  0.966  0.969
 
band     7 # energy   22.76220899 # occ.  0.00000000
 
ion      s      p      d    tot
    1  0.051  0.187  0.129  0.367
 
band     8 # energy   23.45878679 # occ.  0.00000000
 
ion      s      p      d    tot
    1  0.012  0.040  0.095  0.147
 
band     9 # energy   26.20663532 # occ.  0.00000000
 
ion      s      p      d    tot
    1  0.000  0.305  0.079  0.384
 
band    10 # energy   28.05099266 # occ.  0.00000000
 
ion      s      p      d    tot
    1  0.000  0.197  0.105  0.302
 
band    11 # energy   30.75963057 # occ.  0.00000000
 
ion      s      p      d    tot
    1  0.025  0.318  0.093  0.435
 
band    12 # energy   33.92194491 # occ.  0.00000000
 
ion      s      p      d    tot
    1  0.002  0.190  0.200  0.392
 

 k-point    20 :    0.25000000 0.25000000 0.05000000     weight = 0.00600000

band     1 # energy   -1.78064705 # occ.  2.00000000
 
ion      s      p      d    tot
    1  0.555  0.119  0.091  0.766
 
band     2 # energy    0.52668662 # occ.  2.00000000
 
ion      s      p      d    tot
    1  0.000  0.002  0.932  0.935
 