<?xml version="1.0" encoding="ISO-8859-1"?>
<modeling>
 <generator>
  <i name="program" type="string">vasp </i>
  <i name="version" type="string">5.4.4.18Apr17-6-g9f103f2a35  </i>
  <i name="subversion" type="string">(build May 18 2018 14:42:58) complex            parallel </i>
  <i name="platform" type="string">LinuxIFC </i>
  <i name="date" type="string">2020 06 30 </i>
  <i name="time" type="string">13:40:42 </i>
 </generator>
 <incar>
  <i type="string" name="SYSTEM"> fcc Au</i>
  <i type="string" name="PREC">normal</i>
  <v name="RWIGS">      1.50300000</v>
  <v type="int" name="KPOINT_BSE">    -1     0     0     0</v>
 </incar>
 <structure name="primitive_cell" >
  <crystal>
   <varray name="basis" >
    <v>       0.00000000       1.97500000       1.97500000 </v>
    <v>       1.97500000       0.00000000       1.97500000 </v>
    <v>       1.97500000       1.97500000       0.00000000 </v>
   </varray>
   <i name="volume">     15.40746875 </i>
   <varray name="rec_basis" >
    <v>      -0.25316456       0.25316456       0.25316456 </v>
    <v>       0.25316456      -0.25316456       0.25316456 </v>
    <v>       0.25316456       0.25316456      -0.25316456 </v>
   </varray>
  </crystal>
  <varray name="positions" >
   <v>       0.00000000       0.00000000       0.00000000 </v>
  </varray>
 </structure>
 <varray name="primitive_index" >
  <v type="int" >        1 </v>
 </varray>
 <kpoints>
  <generation param="Monkhorst-Pack">
   <v type="int" name="divisions">      10       10       10 </v>
   <v name="usershift">      0.00000000       0.00000000       0.00000000 </v>
   <v name="genvec1">      0.10000000       0.00000000       0.00000000 </v>
   <v name="genvec2">      0.00000000       0.10000000       0.00000000 </v>
   <v name="genvec3">      0.00000000       0.00000000       0.10000000 </v>
   <v name="shift">      0.50000000       0.50000000       0.50000000 </v>
  </generation>
  <varray name="kpointlist" >
   <v>       0.05000000       0.05000000       0.05000000 </v>
   <v>       0.15000000       0.05000000       0.05000000 </v>
   <v>       0.25000000       0.05000000       0.05000000 </v>
   <v>       0.35000000       0.05000000       0.05000000 </v>
   <v>       0.45000000       0.05000000       0.05000000 </v>
   <v>      -0.45000000       0.05000000       0.05000000 </v>
   <v>      -0.35000000       0.05000000       0.05000000 </v>
   <v>      -0.25000000       0.05000000       0.05000000 </v>
   <v>      -0.15000000       0.05000000       0.05000000 </v>
   <v>      -0.05000000       0.05000000       0.05000000 </v>
   <v>       0.15000000       0.15000000       0.05000000 </v>
   <v>       0.25000000       0.15000000       0.05000000 </v>
   <v>       0.35000000       0.15000000       0.05000000 </v>
   <v>       0.45000000       0.15000000       0.05000000 </v>
   <v>      -0.45000000       0.15000000       0.05000000 </v>
   <v>      -0.35000000       0.15000000       0.05000000 </v>
   <v>      -0.25000000       0.15000000       0.05000000 </v>
   <v>      -0.15000000       0.15000000       0.05000000 </v>
   <v>      -0.05000000       0.15000000       0.05000000 </v>
   <v>       0.25000000       0.25000000       0.05000000 </v>
   <v>       0.35000000       0.25000000       0.05000000 </v>
   <v>       0.45000000       0.25000000       0.05000000 </v>
   <v>      -0.45000000       0.25000000       0.05000000 </v>
   <v>      -0.35000000       0.25000000       0.05000000 </v>
   <v>      -0.25000000       0.25000000       0.05000000 </v>
   <v>      -0.15000000       0.25000000       0.05000000 </v>
   <v>      -0.05000000       0.25000000       0.05000000 </v>
   <v>       0.35000000       0.35000000       0.05000000 </v>
   <v>       0.45000000       0.35000000       0.05000000 </v>
   <v>      -0.45000000       0.35000000       0.05000000 </v>
   <v>      -0.35000000       0.35000000       0.05000000 </v>
   <v>      -0.25000000       0.35000000       0.05000000 </v>
   <v>      -0.15000000       0.35000000       0.05000000 </v>
   <v>      -0.05000000       0.35000000       0.05000000 </v>
   <v>       0.45000000       0.45000000       0.05000000 </v>
   <v>      -0.45000000       0.45000000       0.05000000 </v>
   <v>      -0.35000000       0.45000000       0.05000000 </v>
   <v>      -0.25000000       0.45000000       0.05000000 </v>
   <v>      -0.15000000       0.45000000       0.05000000 </v>
   <v>      -0.05000000       0.45000000       0.05000000 </v>
   <v>      -0.45000000      -0.45000000       0.05000000 </v>
   <v>      -0.35000000      -0.45000000       0.05000000 </v>
   <v>      -0.25000000      -0.45000000       0.05000000 </v>
   <v>      -0.15000000      -0.45000000       0.05000000 </v>
   <v>      -0.35000000      -0.35000000       0.05000000 </v>
   <v>      -0.25000000      -0.35000000       0.05000000 </v>
   <v>      -0.15000000      -0.35000000       0.05000000 </v>
   <v>      -0.25000000      -0.25000000       0.05000000 </v>
   <v>      -0.15000000      -0.25000000       0.05000000 </v>
   <v>      -0.15000000      -0.15000000       0.05000000 </v>
   <v>       0.15000000       0.15000000       0.15000000 </v>
   <v>       0.25000000       0.15000000       0.15000000 </v>
   <v>       0.35000000       0.15000000       0.15000000 </v>
   <v>       0.45000000       0.15000000       0.15000000 </v>
   <v>      -0.45000000       0.15000000       0.15000000 </v>
   <v>      -0.35000000       0.15000000       0.15000000 </v>
   <v>      -0.25000000       0.15000000       0.15000000 </v>
   <v>      -0.15000000       0.15000000       0.15000000 </v>
   <v>       0.25000000       0.25000000       0.15000000 </v>
   <v>       0.35000000       0.25000000       0.15000000 </v>
   <v>       0.45000000       0.25000000       0.15000000 </v>
   <v>      -0.45000000       0.25000000       0.15000000 </v>
   <v>      -0.35000000       0.25000000       0.15000000 </v>
   <v>      -0.25000000       0.25000000       0.15000000 </v>
   <v>      -0.15000000       0.25000000       0.15000000 </v>
   <v>       0.35000000       0.35000000       0.15000000 </v>
   <v>       0.45000000       0.35000000       0.15000000 </v>
   <v>      -0.45000000       0.35000000       0.15000000 </v>
   <v>      -0.35000000       0.35000000       0.15000000 </v>
   <v>      -0.25000000       0.35000000       0.15000000 </v>
   <v>      -0.15000000       0.35000000       0.15000000 </v>
   <v>       0.45000000       0.45000000       0.15000000 </v>
   <v>      -0.45000000       0.45000000       0.15000000 </v>
   <v>      -0.35000000       0.45000000       0.15000000 </v>
   <v>      -0.25000000       0.45000000       0.15000000 </v>
   <v>      -0.15000000       0.45000000       0.15000000 </v>
   <v>      -0.45000000      -0.45000000       0.15000000 </v>
   <v>      -0.35000000      -0.45000000       0.15000000 </v>
   <v>      -0.25000000      -0.45000000       0.15000000 </v>
   <v>      -0.35000000      -0.35000000       0.15000000 </v>
   <v>      -0.25000000      -0.35000000       0.15000000 </v>
   <v>      -0.25000000      -0.25000000       0.15000000 </v>
   <v>       0.25000000       0.25000000       0.25000000 </v>
   <v>       0.35000000       0.25000000       0.25000000 </v>
   <v>       0.45000000       0.25000000       0.25000000 </v>
   <v>      -0.45000000       0.25000000       0.25000000 </v>
   <v>      -0.35000000       0.25000000       0.25000000 </v>
   <v>      -0.25000000       0.25000000       0.25000000 </v>
   <v>       0.35000000       0.35000000       0.25000000 </v>
   <v>       0.45000000       0.35000000       0.25000000 </v>
   <v>      -0.45000000       0.35000000       0.25000000 </v>
   <v>      -0.35000000       0.35000000       0.25000000 </v>
   <v>      -0.25000000       0.35000000       0.25000000 </v>
   <v>       0.45000000       0.45000000       0.25000000 </v>
   <v>      -0.45000000       0.45000000       0.25000000 </v>
   <v>      -0.35000000       0.45000000       0.25000000 </v>
   <v>      -0.25000000       0.45000000       0.25000000 </v>
   <v>      -0.45000000      -0.45000000       0.25000000 </v>
   <v>      -0.35000000      -0.45000000       0.25000000 </v>
   <v>      -0.35000000      -0.35000000       0.25000000 </v>
   <v>       0.35000000       0.35000000       0.35000000 </v>
   <v>       0.45000000       0.35000000       0.35000000 </v>
   <v>      -0.45000000       0.35000000       0.35000000 </v>
   <v>      -0.35000000       0.35000000       0.35000000 </v>
   <v>       0.45000000       0.45000000       0.35000000 </v>
   <v>      -0.45000000       0.45000000       0.35000000 </v>
   <v>      -0.35000000       0.45000000       0.35000000 </v>
   <v>      -0.45000000      -0.45000000       0.35000000 </v>
   <v>       0.45000000       0.45000000       0.45000000 </v>
   <v>      -0.45000000       0.45000000       0.45000000 </v>
  </varray>
  <varray name="weights" >
   <v>       0.00200000 </v>
   <v>       0.00600000 </v>
   <v>       0.00600000 </v>
   <v>       0.00600000 </v>
   <v>       0.00600000 </v>
   <v>       0.00600000 </v>
   <v>       0.00600000 </v>
   <v>       0.00600000 </v>
   <v>       0.00600000 </v>
   <v>       0.00600000 </v>
   <v>       0.00600000 </v>
   <v>       0.01200000 </v>
   <v>       0.01200000 </v>
   <v>       0.01200000 </v>
   <v>       0.01200000 </v>
   <v>       0.01200000 </v>
   <v>       0.01200000 </v>
   <v>       0.01200000 </v>
   <v>       0.01200000 </v>
   <v>       0.00600000 </v>
   <v>       0.01200000 </v>
   <v>       0.01200000 </v>
   <v>       0.01200000 </v>
   <v>       0.01200000 </v>
   <v>       0.01200000 </v>
   <v>       0.01200000 </v>
   <v>       0.01200000 </v>
   <v>       0.00600000 </v>
   <v>       0.01200000 </v>
   <v>       0.01200000 </v>
   <v>       0.01200000 </v>
   <v>       0.01200000 </v>
   <v>       0.01200000 </v>
   <v>       0.01200000 </v>
   <v>       0.00600000 </v>
   <v>       0.01200000 </v>
   <v>       0.01200000 </v>
   <v>       0.01200000 </v>
   <v>       0.01200000 </v>
   <v>       0.01200000 </v>
   <v>       0.00600000 </v>
   <v>       0.01200000 </v>
   <v>       0.01200000 </v>
   <v>       0.01200000 </v>
   <v>       0.00600000 </v>
   <v>       0.01200000 </v>
   <v>       0.01200000 </v>
   <v>       0.00600000 </v>
   <v>       0.01200000 </v>
   <v>       0.00600000 </v>
   <v>       0.00200000 </v>
   <v>       0.00600000 </v>
   <v>       0.00600000 </v>
   <v>       0.00600000 </v>
   <v>       0.00600000 </v>
   <v>       0.00600000 </v>
   <v>       0.00600000 </v>
   <v>       0.00600000 </v>
   <v>       0.00600000 </v>
   <v>       0.01200000 </v>
   <v>       0.01200000 </v>
   <v>       0.01200000 </v>
   <v>       0.01200000 </v>
   <v>       0.01200000 </v>
   <v>       0.01200000 </v>
   <v>       0.00600000 </v>
   <v>       0.01200000 </v>
   <v>       0.01200000 </v>
   <v>       0.01200000 </v>
   <v>       0.01200000 </v>
   <v>       0.01200000 </v>
   <v>       0.00600000 </v>
   <v>       0.01200000 </v>
   <v>       0.01200000 </v>
   <v>       0.01200000 </v>
   <v>       0.01200000 </v>
   <v>       0.00600000 </v>
   <v>       0.01200000 </v>
   <v>       0.01200000 </v>
   <v>       0.00600000 </v>
   <v>       0.01200000 </v>
   <v>       0.00600000 </v>
   <v>       0.00200000 </v>
   <v>       0.00600000 </v>
   <v>       0.00600000 </v>
   <v>       0.00600000 </v>
   <v>       0.00600000 </v>
   <v>       0.00600000 </v>
   <v>       0.00600000 </v>
   <v>       0.01200000 </v>
   <v>       0.01200000 </v>
   <v>       0.01200000 </v>
   <v>       0.01200000 </v>
   <v>       0.00600000 </v>
   <v>       0.01200000 </v>
   <v>       0.01200000 </v>
   <v>       0.01200000 </v>
   <v>       0.00600000 </v>
   <v>       0.01200000 </v>
   <v>       0.00600000 </v>
   <v>       0.00200000 </v>
   <v>       0.00600000 </v>
   <v>       0.00600000 </v>
   <v>       0.00600000 </v>
   <v>       0.00600000 </v>
   <v>       0.01200000 </v>
   <v>       0.01200000 </v>
   <v>       0.00600000 </v>
   <v>       0.00200000 </v>
   <v>       0.00600000 </v>
  </varray>
 </kpoints>
 <parameters>
  <separator name="general" >
   <i type="string" name="SYSTEM">fcc Au</i>
   <i type="logical" name="LCOMPAT"> F  </i>
  </separator>
  <separator name="electronic" >
   <i type="string" name="PREC">normal</i>
   <i name="ENMAX">    229.86900000</i>
   <i name="ENAUG">    356.67000000</i>
   <i name="EDIFF">      0.00010000</i>
   <i type="int" name="IALGO">    38</i>
   <i type="int" name="IWAVPR">    10</i>
   <i type="int" name="NBANDS">    12</i>
   <i name="NELECT">     11.00000000</i>
   <i type="int" name="TURBO">     0</i>
   <i type="int" name="IRESTART">     0</i>
   <i type="int" name="NREBOOT">     0</i>
   <i type="int" name="NMIN">     0</i>
   <i name="EREF">      0.00000000</i>
   <separator name="electronic smearing" >
    <i type="int" name="ISMEAR">     1</i>
    <i name="SIGMA">      0.20000000</i>
    <i name="KSPACING">      0.50000000</i>
    <i type="logical" name="KGAMMA"> T  </i>
   </separator>
   <separator name="electronic projectors" >
    <i type="logical" name="LREAL"> F  </i>
    <v name="ROPT">      0.00000000</v>
    <i type="int" name="LMAXPAW">  -100</i>
    <i type="int" name="LMAXMIX">     2</i>
    <i type="logical" name="NLSPLINE"> F  </i>
   </separator>
   <separator name="electronic startup" >
    <i type="int" name="ISTART">     0</i>
    <i type="int" name="ICHARG">     2</i>
    <i type="int" name="INIWAV">     1</i>
   </separator>
   <separator name="electronic spin" >
    <i type="int" name="ISPIN">     1</i>
    <i type="logical" name="LNONCOLLINEAR"> F  </i>
    <v name="MAGMOM">      1.00000000</v>
    <i name="NUPDOWN">     -1.00000000</i>
    <i type="logical" name="LSORBIT"> F  </i>
    <v name="SAXIS">      0.00000000      0.00000000      1.00000000</v>
    <i type="logical" name="LSPIRAL"> F  </i>
    <v name="QSPIRAL">      0.00000000      0.00000000      0.00000000</v>
    <i type="logical" name="LZEROZ"> F  </i>
   </separator>
   <separator name="electronic exchange-correlation" >
    <i type="logical" name="LASPH"> F  </i>
    <i type="logical" name="LMETAGGA"> F  </i>
   </separator>
   <separator name="electronic convergence" >
    <i type="int" name="NELM">    60</i>
    <i type="int" name="NELMDL">    -5</i>
    <i type="int" name="NELMIN">     2</i>
    <i name="ENINI">    229.86900000</i>
    <separator name="electronic convergence detail" >
     <i type="logical" name="LDIAG"> T  </i>
     <i type="logical" name="LSUBROT"> F  </i>
     <i name="WEIMIN">      0.00000000</i>
     <i name="EBREAK">      0.00000208</i>
     <i name="DEPER">      0.30000000</i>
     <i type="int" name="NRMM">     4</i>
     <i name="TIME">      0.40000000</i>
    </separator>
   </separator>
   <separator name="electronic mixer" >
    <i name="AMIX">      0.40000000</i>
    <i name="BMIX">      1.00000000</i>
    <i name="AMIN">      0.10000000</i>
    <i name="AMIX_MAG">      1.60000000</i>
    <i name="BMIX_MAG">      1.00000000</i>
    <separator name="electronic mixer details" >
     <i type="int" name="IMIX">     4</i>
     <i type="logical" name="MIXFIRST"> F  </i>
     <i type="int" name="MAXMIX">   -45</i>
     <i name="WC">    100.00000000</i>
     <i type="int" name="INIMIX">     1</i>
     <i type="int" name="MIXPRE">     1</i>
     <i type="int" name="MREMOVE">     5</i>
    </separator>
   </separator>
   <separator name="electronic dipolcorrection" >
    <i type="logical" name="LDIPOL"> F  </i>
    <i type="logical" name="LMONO"> F  </i>
    <i type="int" name="IDIPOL">     0</i>
    <i name="EPSILON">      1.00000000</i>
    <v name="DIPOL">   -100.00000000   -100.00000000   -100.00000000</v>
    <i name="EFIELD">      0.00000000</i>
   </separator>
  </separator>
  <separator name="grids" >
   <i type="int" name="NGX">    10</i>
   <i type="int" name="NGY">    10</i>
   <i type="int" name="NGZ">    10</i>
   <i type="int" name="NGXF">    20</i>
   <i type="int" name="NGYF">    20</i>
   <i type="int" name="NGZF">    20</i>
   <i type="logical" name="ADDGRID"> F  </i>
  </separator>
  <separator name="ionic" >
   <i type="int" name="NSW">     0</i>
   <i type="int" name="IBRION">    -1</i>
   <i type="int" name="MDALGO">     0</i>
   <i type="int" name="ISIF">     2</i>
   <i name="PSTRESS">      0.00000000</i>
   <i name="EDIFFG">      0.00100000</i>
   <i type="int" name="NFREE">     0</i>
   <i name="POTIM">      0.50000000</i>
   <i name="SMASS">     -3.00000000</i>
   <i name="SCALEE">      1.00000000</i>
  </separator>
  <separator name="ionic md" >
   <i name="TEBEG">      0.00010000</i>
   <i name="TEEND">      0.00010000</i>
   <i type="int" name="NBLOCK">     1</i>
   <i type="int" name="KBLOCK">     1</i>
   <i type="int" name="NPACO">   256</i>
   <i name="APACO">     16.00000000</i>
  </separator>
  <separator name="symmetry" >
   <i type="int" name="ISYM">     2</i>
   <i name="SYMPREC">      0.00001000</i>
  </separator>
  <separator name="dos" >
   <i type="int" name="LORBIT">     0</i>
   <v name="RWIGS">      1.50300000</v>
   <i type="int" name="NEDOS">   301</i>
   <i name="EMIN">     10.00000000</i>
   <i name="EMAX">    -10.00000000</i>
   <i name="EFERMI">      0.00000000</i>
  </separator>
  <separator name="writing" >
   <i type="int" name="NWRITE">     2</i>
   <i type="logical" name="LWAVE"> T  </i>
   <i type="logical" name="LDOWNSAMPLE"> F  </i>
   <i type="logical" name="LCHARG"> T  </i>
   <i type="logical" name="LPARD"> F  </i>
   <i type="logical" name="LVTOT"> F  </i>
   <i type="logical" name="LVHAR"> F  </i>
   <i type="logical" name="LELF"> F  </i>
   <i type="logical" name="LOPTICS"> F  </i>
   <v name="STM">      0.00000000      0.00000000      0.00000000      0.00000000      0.00000000      0.00000000      0.00000000</v>
  </separator>
  <separator name="performance" >
   <i type="int" name="NPAR">     4</i>
   <i type="int" name="NSIM">     4</i>
   <i type="int" name="NBLK">    -1</i>
   <i type="logical" name="LPLANE"> T  </i>
   <i type="logical" name="LSCALAPACK"> T  </i>
   <i type="logical" name="LSCAAWARE"> F  </i>
   <i type="logical" name="LSCALU"> F  </i>
   <i type="logical" name="LASYNC"> F  </i>
   <i type="logical" name="LORBITALREAL"> F  </i>
  </separator>
  <separator name="miscellaneous" >
   <i type="int" name="IDIOT">     3</i>
   <i type="int" name="ISPECIAL">     0</i>
   <i type="logical" name="LMUSIC"> F  </i>
   <v name="POMASS">    196.96600000</v>
   <v name="DARWINR">      0.00000000</v>
   <v name="DARWINV">      1.00000000</v>
   <i type="logical" name="LCORR"> T  </i>
  </separator>
  <i type="logical" name="GGA_COMPAT"> T  </i>
  <i type="logical" name="LBERRY"> F  </i>
  <i type="int" name="ICORELEVEL">     0</i>
  <i type="logical" name="LDAU"> F  </i>
  <i type="int" name="I_CONSTRAINED_M">     0</i>
  <separator name="electronic exchange-correlation" >
   <i type="string" name="GGA">--</i>
   <i type="int" name="VOSKOWN">     0</i>
   <i type="logical" name="LHFCALC"> F  </i>
   <i type="string" name="PRECFOCK"></i>
   <i type="logical" name="LSYMGRAD"> F  </i>
   <i type="logical" name="LHFONE"> F  </i>
   <i type="logical" name="LRHFCALC"> F  </i>
   <i type="logical" name="LTHOMAS"> F  </i>
   <i type="logical" name="LMODELHF"> F  </i>
   <i name="ENCUT4O">     -1.00000000</i>
   <i type="int" name="EXXOEP">     0</i>
   <i type="int" name="FOURORBIT">     0</i>
   <i name="AEXX">      0.00000000</i>
   <i name="HFALPHA">      0.00000000</i>
   <i name="MCALPHA">      0.00000000</i>
   <i name="ALDAX">      1.00000000</i>
   <i name="AGGAX">      1.00000000</i>
   <i name="ALDAC">      1.00000000</i>
   <i name="AGGAC">      1.00000000</i>
   <i type="int" name="NKREDX">     1</i>
   <i type="int" name="NKREDY">     1</i>
   <i type="int" name="NKREDZ">     1</i>
   <i type="logical" name="SHIFTRED"> F  </i>
   <i type="logical" name="ODDONLY"> F  </i>
   <i type="logical" name="EVENONLY"> F  </i>
   <i type="int" name="LMAXFOCK">     0</i>
   <i type="int" name="NMAXFOCKAE">     0</i>
   <i type="logical" name="LFOCKAEDFT"> F  </i>
   <i name="HFSCREEN">      0.00000000</i>
   <i name="HFSCREENC">      0.00000000</i>
   <i type="int" name="NBANDSGWLOW">     0</i>
  </separator>
  <separator name="vdW DFT" >
   <i type="logical" name="LUSE_VDW"> F  </i>
   <i name="Zab_VDW">     -0.84910000</i>
   <i name="PARAM1">      0.12340000</i>
   <i name="PARAM2">      1.00000000</i>
   <i name="PARAM3">      0.00000000</i>
  </separator>
  <separator name="model GW" >
   <i type="int" name="MODEL_GW">     0</i>
   <i name="MODEL_EPS0">      9.24448125</i>
   <i name="MODEL_ALPHA">      1.00000000</i>
  </separator>
  <separator name="linear response parameters" >
   <i type="logical" name="LEPSILON"> F  </i>
   <i type="logical" name="LRPA"> F  </i>
   <i type="logical" name="LNABLA"> F  </i>
   <i type="logical" name="LVEL"> F  </i>
   <i type="int" name="KINTER">     0</i>
   <i name="CSHIFT">      0.10000000</i>
   <i name="OMEGAMAX">     -1.00000000</i>
   <i name="DEG_THRESHOLD">      0.00200000</i>
   <i name="RTIME">     -0.10000000</i>
   <i name="WPLASMAI">      0.00000000</i>
   <v name="DFIELD">      0.00000000      0.00000000      0.00000000</v>
   <v name="WPLASMA">      0.00000000      0.00000000      0.00000000      0.00000000      0.00000000      0.00000000      0.00000000      0.00000000      0.00000000</v>
  </separator>
  <separator name="orbital magnetization" >
   <i type="logical" name="NUCIND"> F  </i>
   <v name="MAGPOS">      0.00000000      0.00000000      0.00000000</v>
   <i type="logical" name="LNICSALL"> T  </i>
   <i type="logical" name="ORBITALMAG"> F  </i>
   <i type="logical" name="LMAGBLOCH"> F  </i>
   <i type="logical" name="LCHIMAG"> F  </i>
   <i type="logical" name="LGAUGE"> T  </i>
   <i type="int" name="MAGATOM">     0</i>
   <v name="MAGDIPOL">      0.00000000      0.00000000      0.00000000</v>
   <v name="AVECCONST">      0.00000000      0.00000000      0.00000000</v>
  </separator>
  <separator name="response functions" >
   <i type="logical" name="LADDER"> F  </i>
   <i type="logical" name="LRPAFORCE"> F  </i>
   <i type="logical" name="LFXC"> F  </i>
   <i type="logical" name="LHARTREE"> T  </i>
   <i type="int" name="IBSE">     0</i>
   <v type="int" name="KPOINT">    -1     0     0     0</v>
   <i type="logical" name="LTCTE"> F  </i>
   <i type="logical" name="LTETE"> F  </i>
   <i type="logical" name="LTRIPLET"> F  </i>
   <i type="logical" name="LFXCEPS"> F  </i>
   <i type="logical" name="LFXHEG"> F  </i>
   <i type="int" name="NATURALO">     2</i>
   <i type="logical" name="L2ORDER"> F  </i>
   <i type="logical" name="LMP2LT"> F  </i>
   <i type="logical" name="LUSEW"> F  </i>
   <i name="ENCUTGW">     -2.00000000</i>
   <i name="ENCUTGWSOFT">     -2.00000000</i>
   <i name="ENCUTLF">     -1.00000000</i>
   <i type="int" name="LMAXMP2">    -1</i>
   <i name="SCISSOR">      0.00000000</i>
   <i type="int" name="NOMEGA">     0</i>
   <i type="int" name="NOMEGAR">     0</i>
   <i type="int" name="NBANDSGW">    -1</i>
   <i type="int" name="NBANDSO">    -1</i>
   <i type="int" name="NBANDSV">    -1</i>
   <i type="int" name="NELM">     1</i>
   <i type="int" name="NELMHF">     1</i>
   <i type="int" name="DIM">     3</i>
   <i type="int" name="ANTIRES">     0</i>
   <i name="OMEGAMAX">    -30.00000000</i>
   <i name="OMEGAMIN">    -30.00000000</i>
   <i name="OMEGATL">   -200.00000000</i>
   <i type="int" name="OMEGAGRID">   140</i>
   <i name="CSHIFT">     -0.10000000</i>
   <i type="logical" name="SELFENERGY"> F  </i>
   <i type="logical" name="LSPECTRAL"> F  </i>
   <i type="logical" name="LSPECTRALGW"> F  </i>
   <i type="logical" name="LSINGLES"> F  </i>
   <i type="logical" name="LFERMIGW"> F  </i>
   <i type="logical" name="ODDONLYGW"> F  </i>
   <i type="logical" name="EVENONLYGW"> F  </i>
   <i type="int" name="NKREDLFX">     1</i>
   <i type="int" name="NKREDLFY">     1</i>
   <i type="int" name="NKREDLFZ">     1</i>
   <i type="int" name="MAXMEM">  2800</i>
   <i type="int" name="TELESCOPE">     0</i>
   <i type="int" name="TAUPAR">     1</i>
   <i type="int" name="OMEGAPAR">    -1</i>
   <i name="LAMBDA">      1.00000000</i>
  </separator>
  <separator name="External order field" >
   <i name="OFIELD_KAPPA">      0.00000000</i>
   <v name="OFIELD_K">      0.00000000      0.00000000      0.00000000</v>
   <i name="OFIELD_Q6_NEAR">      0.00000000</i>
   <i name="OFIELD_Q6_FAR">      0.00000000</i>
   <i name="OFIELD_A">      0.00000000</i>
  </separator>
 </parameters>
 <atominfo>
  <atoms>       1 </atoms>
  <types>       1 </types>
  <array name="atoms" >
   <dimension dim="1">ion</dimension>
   <field type="string">element</field>
   <field type="int">atomtype</field>
   <set>
    <rc><c>Au</c><c>   1</c></rc>
   </set>
  </array>
  <array name="atomtypes" >
   <dimension dim="1">type</dimension>
   <field type="int">atomspertype</field>
   <field type="string">element</field>
   <field>mass</field>
   <field>valence</field>
   <field type="string">pseudopotential</field>
   <set>
    <rc><c>   1</c><c>Au</c><c>    196.96600000</c><c>     11.00000000</c><c> PAW Au 04Feb1998                       </c></rc>
   </set>
  </array>
 </atominfo>
 <structure name="initialpos" >
  <crystal>
   <varray name="basis" >
    <v>       0.00000000       1.97500000       1.97500000 </v>
    <v>       1.97500000       0.00000000       1.97500000 </v>
    <v>       1.97500000       1.97500000       0.00000000 </v>
   </varray>
   <i name="volume">     15.40746875 </i>
   <varray name="rec_basis" >
    <v>      -0.25316456       0.25316456       0.25316456 </v>
    <v>       0.25316456      -0.25316456       0.25316456 </v>
    <v>       0.25316456       0.25316456      -0.25316456 </v>
   </varray>
  </crystal>
  <varray name="positions" >
   <v>       0.00000000       0.00000000       0.00000000 </v>
  </varray>
 </structure>
 <calculation>
  <scstep>
   <time name="dav">    0.26    0.26</time>
   <time name="total">    0.26    0.27</time>
   <energy>
    <i name="alphaZ">    119.28496302 </i>
    <i name="ewald">  -1011.20830427 </i>
    <i name="hartreedc">   -110.23640271 </i>
    <i name="XCdc">     16.63820592 </i>
    <i name="pawpsdc">    746.10209728 </i>
    <i name="pawaedc">   -725.46159323 </i>
    <i name="eentropy">      0.00028591 </i>
    <i name="bandstr">     66.52484351 </i>
    <i name="atom">    929.39614979 </i>
    <i name="e_fr_energy">     31.04024521 </i>
    <i name="e_wo_entrp">     31.03995930 </i>
    <i name="e_0_energy">     31.04014991 </i>
   </energy>
  </scstep>
  <scstep>
   <time name="dav">    0.24    0.24</time>
   <time name="total">    0.24    0.25</time>
   <energy>
    <i name="e_fr_energy">     -4.30906100 </i>
    <i name="e_wo_entrp">     -4.30866910 </i>
    <i name="e_0_energy">     -4.30893036 </i>
   </energy>
  </scstep>
  <scstep>
   <time name="dav">    0.27    0.28</time>
   <time name="total">    0.27    0.28</time>
   <energy>
    <i name="e_fr_energy">     -4.62978679 </i>
    <i name="e_wo_entrp">     -4.62913076 </i>
    <i name="e_0_energy">     -4.62956811 </i>
   </energy>
  </scstep>
  <scstep>
   <time name="dav">    0.27    0.27</time>
   <time name="total">    0.27    0.27</time>
   <energy>
    <i name="e_fr_energy">     -4.63063834 </i>
    <i name="e_wo_entrp">     -4.62998154 </i>
    <i name="e_0_energy">     -4.63041940 </i>
   </energy>
  </scstep>
  <scstep>
   <time name="dav">    0.25    0.26</time>
   <time name="total">    0.25    0.26</time>
   <energy>
    <i name="e_fr_energy">     -4.63064383 </i>
    <i name="e_wo_entrp">     -4.62998703 </i>
    <i name="e_0_energy">     -4.63042490 </i>
   </energy>
  </scstep>
  <scstep>
   <time name="dav">    0.26    0.27</time>
   <time name="total">    0.27    0.27</time>
   <energy>
    <i name="e_fr_energy">     -4.35393007 </i>
    <i name="e_wo_entrp">     -4.35366988 </i>
    <i name="e_0_energy">     -4.35384334 </i>
   </energy>
  </scstep>
  <scstep>
   <time name="dav">    0.24    0.24</time>
   <time name="total">    0.24    0.25</time>
   <energy>
    <i name="e_fr_energy">     -4.32222299 </i>
    <i name="e_wo_entrp">     -4.32233875 </i>
    <i name="e_0_energy">     -4.32226157 </i>
   </energy>
  </scstep>
  <scstep>
   <time name="dav">    0.21    0.22</time>
   <time name="total">    0.22    0.23</time>
   <energy>
    <i name="e_fr_energy">     -4.31660284 </i>
    <i name="e_wo_entrp">     -4.31675101 </i>
    <i name="e_0_energy">     -4.31665223 </i>
   </energy>
  </scstep>
  <scstep>
   <time name="dav">    0.16    0.17</time>
   <time name="total">    0.17    0.17</time>
   <energy>
    <i name="alphaZ">    119.28496302 </i>
    <i name="ewald">  -1011.20830427 </i>
    <i name="hartreedc">    -99.23739902 </i>
    <i name="XCdc">     16.07091323 </i>
    <i name="pawpsdc">    770.38237898 </i>
    <i name="pawaedc">   -753.11937924 </i>
    <i name="eentropy">      0.00015231 </i>
    <i name="bandstr">     24.11393179 </i>
    <i name="atom">    929.39614979 </i>
    <i name="e_fr_energy">     -4.31659341 </i>
    <i name="e_wo_entrp">     -4.31674572 </i>
    <i name="e_0_energy">     -4.31664418 </i>
   </energy>
  </scstep>
  <structure>
   <crystal>
    <varray name="basis" >
     <v>       0.00000000       1.97500000       1.97500000 </v>
     <v>       1.97500000       0.00000000       1.97500000 </v>
     <v>       1.97500000       1.97500000       0.00000000 </v>
    </varray>
    <i name="volume">     15.40746875 </i>
    <varray name="rec_basis" >
     <v>      -0.25316456       0.25316456       0.25316456 </v>
     <v>       0.25316456      -0.25316456       0.25316456 </v>
     <v>       0.25316456       0.25316456      -0.25316456 </v>
    </varray>
   </crystal>
   <varray name="positions" >
    <v>       0.00000000       0.00000000       0.00000000 </v>
   </varray>
  </structure>
  <varray name="forces" >
   <v>       0.00000000      -0.00000000       0.00000000 </v>
  </varray>
  <varray name="stress" >
   <v>     165.61575036       0.00000000       0.00000000 </v>
   <v>       0.00000000     165.61575036       0.00000000 </v>
   <v>      -0.00000000       0.00000000     165.61575036 </v>
  </varray>
  <energy>
   <i name="e_fr_energy">     -4.31659341 </i>
   <i name="e_wo_entrp">     -4.31664418 </i>
   <i name="e_0_energy">      0.00015231 </i>
  </energy>
  <time name="totalsc">    2.35    2.40</time>
  <eigenvalues>
   <array>
    <dimension dim="1">band</dimension>
    <dimension dim="2">kpoint</dimension>
    <dimension dim="3">spin</dimension>
    <field>eigene</field>
    <field>occ</field>
    <set>
     <set comment="spin 1">
      <set comment="kpoint 1">
       <r>   -3.9957    1.0000 </r>
       <r>    1.6251    1.0000 </r>
       <r>    1.6979    1.0000 </r>
       <r>    1.6979    1.0000 </r>
       <r>    3.4797    1.0000 </r>
       <r>    3.4797    1.0000 </r>
       <r>   22.3844    0.0000 </r>
       <r>   26.0287    0.0000 </r>
       <r>   26.8376    0.0000 </r>
       <r>   26.8376    0.0000 </r>
       <r>   31.8886    0.0000 </r>
       <r>   35.7784    0.0000 </r>
      </set>
      <set comment="kpoint 2">
       <r>   -3.4982    1.0000 </r>
       <r>    1.4388    1.0000 </r>
       <r>    1.8583    1.0000 </r>
       <r>    1.8948    1.0000 </r>
       <r>    3.2983    1.0000 </r>
       <r>    3.5358    1.0000 </r>
       <r>   22.9040    0.0000 </r>
       <r>   24.0070    0.0000 </r>
       <r>   26.6039    0.0000 </r>
       <r>   27.8675    0.0000 </r>
       <r>   31.7542    0.0000 </r>
       <r>   34.5251    0.0000 </r>
      </set>
      <set comment="kpoint 3">
       <r>   -2.4337    1.0000 </r>
       <r>    1.2917    1.0000 </r>
       <r>    2.0325    1.0000 </r>
       <r>    2.0607    1.0000 </r>
       <r>    3.3067    1.0000 </r>
       <r>    3.7868    1.0000 </r>
       <r>   20.3059    0.0000 </r>
       <r>   23.5851    0.0000 </r>
       <r>   27.0497    0.0000 </r>
       <r>   29.3645    0.0000 </r>
       <r>   29.4952    0.0000 </r>
       <r>   32.2443    0.0000 </r>
      </set>
      <set comment="kpoint 4">
       <r>   -1.5183    1.0000 </r>
       <r>    1.8174    1.0000 </r>
       <r>    1.9233    1.0000 </r>
       <r>    2.0385    1.0000 </r>
       <r>    3.8865    1.0000 </r>
       <r>    4.4557    1.0000 </r>
       <r>   16.2440    0.0000 </r>
       <r>   22.8107    0.0000 </r>
       <r>   26.1517    0.0000 </r>
       <r>   28.5347    0.0000 </r>
       <r>   30.5749    0.0000 </r>
       <r>   31.9136    0.0000 </r>
      </set>
      <set comment="kpoint 5">
       <r>   -1.3168    1.0000 </r>
       <r>    1.6416    1.0000 </r>
       <r>    1.7245    1.0000 </r>
       <r>    3.7123    1.0000 </r>
       <r>    4.6000    1.0000 </r>
       <r>    5.3767    1.0000 </r>
       <r>   12.3393   -0.0000 </r>
       <r>   21.9095    0.0000 </r>
       <r>   25.0606    0.0000 </r>
       <r>   26.2257    0.0000 </r>
       <r>   32.7385    0.0000 </r>
       <r>   33.1774    0.0000 </r>
      </set>
      <set comment="kpoint 6">
       <r>   -1.3198    1.0000 </r>
       <r>    1.5629    1.0000 </r>
       <r>    1.6779    1.0000 </r>
       <r>    4.2558    1.0000 </r>
       <r>    4.9451    1.0000 </r>
       <r>    6.1217    1.0000 </r>
       <r>   10.6747   -0.0000 </r>
       <r>   21.6618    0.0000 </r>
       <r>   25.0835    0.0000 </r>
       <r>   25.1901    0.0000 </r>
       <r>   33.4052    0.0000 </r>
       <r>   33.5087    0.0000 </r>
      </set>
      <set comment="kpoint 7">
       <r>   -1.3367    1.0000 </r>
       <r>    1.6766    1.0000 </r>
       <r>    1.8095    1.0000 </r>
       <r>    3.0746    1.0000 </r>
       <r>    4.6996    1.0000 </r>
       <r>    4.7768    1.0000 </r>
       <r>   13.5515    0.0000 </r>
       <r>   22.1674    0.0000 </r>
       <r>   25.5958    0.0000 </r>
       <r>   26.4911    0.0000 </r>
       <r>   32.6927    0.0000 </r>
       <r>   32.7629    0.0000 </r>
      </set>
      <set comment="kpoint 8">
       <r>   -1.7431    1.0000 </r>
       <r>    1.5715    1.0000 </r>
       <r>    1.9357    1.0000 </r>
       <r>    2.0139    1.0000 </r>
       <r>    3.7710    1.0000 </r>
       <r>    4.0970    1.0000 </r>
       <r>   17.6221    0.0000 </r>
       <r>   23.2115    0.0000 </r>
       <r>   26.7231    0.0000 </r>
       <r>   28.6346    0.0000 </r>
       <r>   30.3159    0.0000 </r>
       <r>   32.0872    0.0000 </r>
      </set>
      <set comment="kpoint 9">
       <r>   -2.8223    1.0000 </r>
       <r>    1.2823    1.0000 </r>
       <r>    2.0242    1.0000 </r>
       <r>    2.0401    1.0000 </r>
       <r>    3.2543    1.0000 </r>
       <r>    3.6411    1.0000 </r>
       <r>   21.5719    0.0000 </r>
       <r>   23.6086    0.0000 </r>
       <r>   27.0232    0.0000 </r>
       <r>   28.4102    0.0000 </r>
       <r>   30.3780    0.0000 </r>
       <r>   32.9370    0.0000 </r>
      </set>
      <set comment="kpoint 10">
       <r>   -3.7423    1.0000 </r>
       <r>    1.4949    1.0000 </r>
       <r>    1.8089    1.0000 </r>
       <r>    1.8136    1.0000 </r>
       <r>    3.3278    1.0000 </r>
       <r>    3.5473    1.0000 </r>
       <r>   22.6951    0.0000 </r>
       <r>   25.0935    0.0000 </r>
       <r>   26.6717    0.0000 </r>
       <r>   27.0122    0.0000 </r>
       <r>   32.7975    0.0000 </r>
       <r>   34.8694    0.0000 </r>
      </set>
      <set comment="kpoint 11">
       <r>   -3.2515    1.0000 </r>
       <r>    1.2376    1.0000 </r>
       <r>    2.0407    1.0000 </r>
       <r>    2.0453    1.0000 </r>
       <r>    3.0641    1.0000 </r>
       <r>    3.6765    1.0000 </r>
       <r>   23.2476    0.0000 </r>
       <r>   24.2020    0.0000 </r>
       <r>   26.1520    0.0000 </r>
       <r>   26.6899    0.0000 </r>
       <r>   32.3831    0.0000 </r>
       <r>   33.8106    0.0000 </r>
      </set>
      <set comment="kpoint 12">
       <r>   -2.3642    1.0000 </r>
       <r>    0.9448    1.0000 </r>
       <r>    2.1516    1.0000 </r>
       <r>    2.3703    1.0000 </r>
       <r>    2.9967    1.0000 </r>
       <r>    3.9361    1.0000 </r>
       <r>   21.8492    0.0000 </r>
       <r>   23.6109    0.0000 </r>
       <r>   25.6243    0.0000 </r>
       <r>   26.9324    0.0000 </r>
       <r>   30.3336    0.0000 </r>
       <r>   32.9474    0.0000 </r>
      </set>
      <set comment="kpoint 13">
       <r>   -1.2981    1.0000 </r>
       <r>    1.0379    1.0000 </r>
       <r>    1.7887    1.0000 </r>
       <r>    2.3809    1.0000 </r>
       <r>    3.7677    1.0000 </r>
       <r>    4.6137    1.0000 </r>
       <r>   17.8629    0.0000 </r>
       <r>   23.0874    0.0000 </r>
       <r>   24.5794    0.0000 </r>
       <r>   27.0558    0.0000 </r>
       <r>   30.8742    0.0000 </r>
       <r>   32.5022    0.0000 </r>
      </set>
      <set comment="kpoint 14">
       <r>   -0.9203    1.0000 </r>
       <r>    1.4306    1.0000 </r>
       <r>    2.0455    1.0000 </r>
       <r>    2.2354    1.0000 </r>
       <r>    4.6691    1.0000 </r>
       <r>    5.8886    1.0000 </r>
       <r>   13.7203    0.0000 </r>
       <r>   22.3436    0.0000 </r>
       <r>   23.4328    0.0000 </r>
       <r>   25.7321    0.0000 </r>
       <r>   32.5740    0.0000 </r>
       <r>   33.9218    0.0000 </r>
      </set>
      <set comment="kpoint 15">
       <r>   -0.9092    1.0000 </r>
       <r>    1.2805    1.0000 </r>
       <r>    2.0266    1.0000 </r>
       <r>    3.0451    1.0000 </r>
       <r>    4.8880    1.0000 </r>
       <r>    7.7609   -0.0000 </r>
       <r>   10.6173   -0.0000 </r>
       <r>   21.8377    0.0000 </r>
       <r>   23.1105    0.0000 </r>
       <r>   24.7575    0.0000 </r>
       <r>   33.3120    0.0000 </r>
       <r>   34.2921    0.0000 </r>
      </set>
      <set comment="kpoint 16">
       <r>   -0.8833    1.0000 </r>
       <r>    1.3760    1.0000 </r>
       <r>    2.0550    1.0000 </r>
       <r>    2.6606    1.0000 </r>
       <r>    4.4975    1.0000 </r>
       <r>    6.6505    1.0140 </r>
       <r>   12.5388    0.0000 </r>
       <r>   21.7371    0.0000 </r>
       <r>   23.2695    0.0000 </r>
       <r>   25.8792    0.0000 </r>
       <r>   32.2447    0.0000 </r>
       <r>   34.0042    0.0000 </r>
      </set>
      <set comment="kpoint 17">
       <r>   -1.0478    1.0000 </r>
       <r>    1.3638    1.0000 </r>
       <r>    1.7204    1.0000 </r>
       <r>    2.2778    1.0000 </r>
       <r>    3.6696    1.0000 </r>
       <r>    5.2323    1.0000 </r>
       <r>   16.4845    0.0000 </r>
       <r>   22.1421    0.0000 </r>
       <r>   24.3514    0.0000 </r>
       <r>   28.0000    0.0000 </r>
       <r>   30.2117    0.0000 </r>
       <r>   33.0497    0.0000 </r>
      </set>
      <set comment="kpoint 18">
       <r>   -1.9815    1.0000 </r>
       <r>    0.9935    1.0000 </r>
       <r>    2.0227    1.0000 </r>
       <r>    2.3982    1.0000 </r>
       <r>    2.9918    1.0000 </r>
       <r>    4.2433    1.0000 </r>
       <r>   20.4454    0.0000 </r>
       <r>   22.8279    0.0000 </r>
       <r>   26.1242    0.0000 </r>
       <r>   27.1847    0.0000 </r>
       <r>   31.0644    0.0000 </r>
       <r>   32.1712    0.0000 </r>
      </set>
      <set comment="kpoint 19">
       <r>   -3.0255    1.0000 </r>
       <r>    1.2416    1.0000 </r>
       <r>    2.0426    1.0000 </r>
       <r>    2.0574    1.0000 </r>
       <r>    3.1129    1.0000 </r>
       <r>    3.6869    1.0000 </r>
       <r>   22.7622    0.0000 </r>
       <r>   23.4588    0.0000 </r>
       <r>   26.2066    0.0000 </r>
       <r>   28.0510    0.0000 </r>
       <r>   30.7596    0.0000 </r>
       <r>   33.9219    0.0000 </r>
      </set>
      <set comment="kpoint 20">
       <r>   -1.7806    1.0000 </r>
       <r>    0.5267    1.0000 </r>
       <r>    2.3212    1.0000 </r>
       <r>    2.8180    1.0000 </r>
       <r>    3.0402    1.0000 </r>
       <r>    4.0818    1.0000 </r>
       <r>   22.4075    0.0000 </r>
       <r>   23.6531    0.0000 </r>
       <r>   24.4322    0.0000 </r>
       <r>   25.3701    0.0000 </r>
       <r>   27.4827    0.0000 </r>
       <r>   34.1773    0.0000 </r>
      </set>
      <set comment="kpoint 21">
       <r>   -0.9435    1.0000 </r>
       <r>    0.2638    1.0000 </r>
       <r>    2.0144    1.0000 </r>
       <r>    3.2254    1.0000 </r>
       <r>    3.8044    1.0000 </r>
       <r>    4.6380    1.0000 </r>
       <r>   19.6420    0.0000 </r>
       <r>   21.6710    0.0000 </r>
       <r>   23.2739    0.0000 </r>
       <r>   26.1187    0.0000 </r>
       <r>   27.6090    0.0000 </r>
       <r>   34.2787    0.0000 </r>
      </set>
      <set comment="kpoint 22">
       <r>   -0.4709    1.0000 </r>
       <r>    0.5560    1.0000 </r>
       <r>    1.7270    1.0000 </r>
       <r>    3.0670    1.0000 </r>
       <r>    4.7787    1.0000 </r>
       <r>    6.2012    1.0000 </r>
       <r>   15.3658    0.0000 </r>
       <r>   20.9844    0.0000 </r>
       <r>   21.4791    0.0000 </r>
       <r>   25.6507    0.0000 </r>
       <r>   30.9071    0.0000 </r>
       <r>   34.4075    0.0000 </r>
      </set>
      <set comment="kpoint 23">
       <r>   -0.3433    1.0000 </r>
       <r>    0.8510    1.0000 </r>
       <r>    1.9493    1.0000 </r>
       <r>    2.8298    1.0000 </r>
       <r>    4.9294    1.0000 </r>
       <r>    8.8464   -0.0000 </r>
       <r>   11.5901   -0.0000 </r>
       <r>   19.6606    0.0000 </r>
       <r>   21.5604    0.0000 </r>
       <r>   25.0686    0.0000 </r>
       <r>   33.4942    0.0000 </r>
       <r>   35.3776    0.0000 </r>
      </set>
      <set comment="kpoint 24">
       <r>   -0.1404    1.0000 </r>
       <r>    0.9303    1.0000 </r>
       <r>    1.9604    1.0000 </r>
       <r>    2.7073    1.0000 </r>
       <r>    4.4449    1.0000 </r>
       <r>    8.6762   -0.0000 </r>
       <r>   12.2111   -0.0000 </r>
       <r>   18.5123    0.0000 </r>
       <r>   22.7882    0.0000 </r>
       <r>   25.2565    0.0000 </r>
       <r>   32.5056    0.0000 </r>
       <r>   35.0092    0.0000 </r>
      </set>
      <set comment="kpoint 25">
       <r>   -0.0274    1.0000 </r>
       <r>    1.0348    1.0000 </r>
       <r>    1.3110    1.0000 </r>
       <r>    2.8012    1.0000 </r>
       <r>    3.6253    1.0000 </r>
       <r>    6.8061    1.0283 </r>
       <r>   15.7434    0.0000 </r>
       <r>   18.4694    0.0000 </r>
       <r>   23.8713    0.0000 </r>
       <r>   27.0623    0.0000 </r>
       <r>   30.0166    0.0000 </r>
       <r>   34.9205    0.0000 </r>
      </set>
      <set comment="kpoint 26">
       <r>   -0.8593    1.0000 </r>
       <r>    0.8995    1.0000 </r>
       <r>    1.6901    1.0000 </r>
       <r>    2.6611    1.0000 </r>
       <r>    3.1524    1.0000 </r>
       <r>    5.3419    1.0000 </r>
       <r>   17.9574    0.0000 </r>
       <r>   20.8113    0.0000 </r>
       <r>   24.8140    0.0000 </r>
       <r>   28.0050    0.0000 </r>
       <r>   29.6366    0.0000 </r>
       <r>   33.6634    0.0000 </r>
      </set>
      <set comment="kpoint 27">
       <r>   -1.9003    1.0000 </r>
       <r>    1.1999    1.0000 </r>
       <r>    1.9923    1.0000 </r>
       <r>    2.1735    1.0000 </r>
       <r>    3.3738    1.0000 </r>
       <r>    4.1564    1.0000 </r>
       <r>   19.0812    0.0000 </r>
       <r>   23.4425    0.0000 </r>
       <r>   26.0183    0.0000 </r>
       <r>   28.3257    0.0000 </r>
       <r>   30.5691    0.0000 </r>
       <r>   31.7244    0.0000 </r>
      </set>
      <set comment="kpoint 28">
       <r>   -0.8325    1.0000 </r>
       <r>   -0.1764    1.0000 </r>
       <r>    3.0066    1.0000 </r>
       <r>    3.8533    1.0000 </r>
       <r>    4.3195    1.0000 </r>
       <r>    4.5736    1.0000 </r>
       <r>   19.5920    0.0000 </r>
       <r>   20.5061    0.0000 </r>
       <r>   20.9799    0.0000 </r>
       <r>   24.9698    0.0000 </r>
       <r>   26.9237    0.0000 </r>
       <r>   36.7366    0.0000 </r>
      </set>
      <set comment="kpoint 29">
       <r>   -0.6968    1.0000 </r>
       <r>   -0.3014    1.0000 </r>
       <r>    3.0755    1.0000 </r>
       <r>    4.2053    1.0000 </r>
       <r>    4.7964    1.0000 </r>
       <r>    6.2158    1.0000 </r>
       <r>   16.6555    0.0000 </r>
       <r>   18.7937    0.0000 </r>
       <r>   19.4193    0.0000 </r>
       <r>   26.0634    0.0000 </r>
       <r>   28.0441    0.0000 </r>
       <r>   36.3648    0.0000 </r>
      </set>
      <set comment="kpoint 30">
       <r>   -0.5132    1.0000 </r>
       <r>    0.0554    1.0000 </r>
       <r>    2.6632    1.0000 </r>
       <r>    3.8451    1.0000 </r>
       <r>    5.0466    1.0000 </r>
       <r>    9.0835   -0.0000 </r>
       <r>   13.1702    0.0000 </r>
       <r>   17.1132    0.0000 </r>
       <r>   19.4867    0.0000 </r>
       <r>   26.2385    0.0000 </r>
       <r>   30.9212    0.0000 </r>
       <r>   35.3468    0.0000 </r>
      </set>
      <set comment="kpoint 31">
       <r>   -0.1730    1.0000 </r>
       <r>    0.6351    1.0000 </r>
       <r>    2.0314    1.0000 </r>
       <r>    3.4508    1.0000 </r>
       <r>    4.6534    1.0000 </r>
       <r>   10.3858   -0.0000 </r>
       <r>   12.6143    0.0000 </r>
       <r>   15.3665    0.0000 </r>
       <r>   20.9763    0.0000 </r>
       <r>   25.8623    0.0000 </r>
       <r>   33.8661    0.0000 </r>
       <r>   34.6356    0.0000 </r>
      </set>
      <set comment="kpoint 32">
       <r>    0.1709    1.0000 </r>
       <r>    0.9734    1.0000 </r>
       <r>    1.4549    1.0000 </r>
       <r>    3.0257    1.0000 </r>
       <r>    4.1594    1.0000 </r>
       <r>    8.5165   -0.0000 </r>
       <r>   14.1558    0.0000 </r>
       <r>   16.3701    0.0000 </r>
       <r>   22.8506    0.0000 </r>
       <r>   25.6801    0.0000 </r>
       <r>   32.0120    0.0000 </r>
       <r>   35.2208    0.0000 </r>
      </set>
      <set comment="kpoint 33">
       <r>   -0.4738    1.0000 </r>
       <r>    1.2562    1.0000 </r>
       <r>    1.8070    1.0000 </r>
       <r>    2.4407    1.0000 </r>
       <r>    4.0537    1.0000 </r>
       <r>    6.7637    1.0354 </r>
       <r>   14.1061    0.0000 </r>
       <r>   20.2205    0.0000 </r>
       <r>   23.5073    0.0000 </r>
       <r>   26.4910    0.0000 </r>
       <r>   31.0183    0.0000 </r>
       <r>   34.4321    0.0000 </r>
      </set>
      <set comment="kpoint 34">
       <r>   -1.2375    1.0000 </r>
       <r>    1.6784    1.0000 </r>
       <r>    1.9711    1.0000 </r>
       <r>    2.2033    1.0000 </r>
       <r>    4.2073    1.0000 </r>
       <r>    5.0179    1.0000 </r>
       <r>   14.9486    0.0000 </r>
       <r>   22.5438    0.0000 </r>
       <r>   24.8058    0.0000 </r>
       <r>   27.2744    0.0000 </r>
       <r>   31.5155    0.0000 </r>
       <r>   32.7914    0.0000 </r>
      </set>
      <set comment="kpoint 35">
       <r>   -1.0070    1.0000 </r>
       <r>   -0.6365    1.0000 </r>
       <r>    4.6307    1.0000 </r>
       <r>    4.6791    1.0000 </r>
       <r>    5.0838    1.0000 </r>
       <r>    6.5952    1.0060 </r>
       <r>   15.4045    0.0000 </r>
       <r>   17.8707    0.0000 </r>
       <r>   18.1816    0.0000 </r>
       <r>   25.3877    0.0000 </r>
       <r>   27.9875    0.0000 </r>
       <r>   37.6511    0.0000 </r>
      </set>
      <set comment="kpoint 36">
       <r>   -0.9294    1.0000 </r>
       <r>   -0.5772    1.0000 </r>
       <r>    4.1653    1.0000 </r>
       <r>    4.6182    1.0000 </r>
       <r>    5.2611    1.0000 </r>
       <r>    8.7592   -0.0000 </r>
       <r>   13.4385    0.0000 </r>
       <r>   16.8140    0.0000 </r>
       <r>   17.7820    0.0000 </r>
       <r>   26.4115    0.0000 </r>
       <r>   28.5392    0.0000 </r>
       <r>   36.7368    0.0000 </r>
      </set>
      <set comment="kpoint 37">
       <r>   -0.5798    1.0000 </r>
       <r>   -0.0483    1.0000 </r>
       <r>    2.9987    1.0000 </r>
       <r>    4.0502    1.0000 </r>
       <r>    5.0409    1.0000 </r>
       <r>   10.5570   -0.0000 </r>
       <r>   12.3115   -0.0000 </r>
       <r>   15.6881    0.0000 </r>
       <r>   19.1083    0.0000 </r>
       <r>   26.4964    0.0000 </r>
       <r>   30.9557    0.0000 </r>
       <r>   35.4488    0.0000 </r>
      </set>
      <set comment="kpoint 38">
       <r>   -0.2049    1.0000 </r>
       <r>    0.6877    1.0000 </r>
       <r>    1.9815    1.0000 </r>
       <r>    3.1889    1.0000 </r>
       <r>    4.8040    1.0000 </r>
       <r>   10.5981   -0.0000 </r>
       <r>   10.9276   -0.0000 </r>
       <r>   17.4549    0.0000 </r>
       <r>   21.1706    0.0000 </r>
       <r>   25.5160    0.0000 </r>
       <r>   33.6564    0.0000 </r>
       <r>   35.0332    0.0000 </r>
      </set>
      <set comment="kpoint 39">
       <r>   -0.5486    1.0000 </r>
       <r>    1.0700    1.0000 </r>
       <r>    2.3365    1.0000 </r>
       <r>    2.5123    1.0000 </r>
       <r>    4.7327    1.0000 </r>
       <r>    8.7030   -0.0000 </r>
       <r>   10.7351   -0.0000 </r>
       <r>   20.5598    0.0000 </r>
       <r>   22.7053    0.0000 </r>
       <r>   24.8075    0.0000 </r>
       <r>   33.0658    0.0000 </r>
       <r>   34.6816    0.0000 </r>
      </set>
      <set comment="kpoint 40">
       <r>   -1.1721    1.0000 </r>
       <r>    1.4869    1.0000 </r>
       <r>    1.8137    1.0000 </r>
       <r>    3.5182    1.0000 </r>
       <r>    4.8312    1.0000 </r>
       <r>    6.4187    1.0001 </r>
       <r>   11.3305   -0.0000 </r>
       <r>   21.8822    0.0000 </r>
       <r>   24.2162    0.0000 </r>
       <r>   25.3953    0.0000 </r>
       <r>   33.1419    0.0000 </r>
       <r>   33.7076    0.0000 </r>
      </set>
      <set comment="kpoint 41">
       <r>   -1.0985    1.0000 </r>
       <r>   -0.7341    1.0000 </r>
       <r>    4.8229    1.0000 </r>
       <r>    4.9924    1.0000 </r>
       <r>    5.2764    1.0000 </r>
       <r>    7.7961   -0.0000 </r>
       <r>   13.7574    0.0000 </r>
       <r>   17.2838    0.0000 </r>
       <r>   17.6443    0.0000 </r>
       <r>   25.5679    0.0000 </r>
       <r>   28.2077    0.0000 </r>
       <r>   37.4140    0.0000 </r>
      </set>
      <set comment="kpoint 42">
       <r>   -0.8351    1.0000 </r>
       <r>   -0.4832    1.0000 </r>
       <r>    3.7356    1.0000 </r>
       <r>    4.5324    1.0000 </r>
       <r>    5.0741    1.0000 </r>
       <r>    7.5365   -0.0007 </r>
       <r>   14.9182    0.0000 </r>
       <r>   17.5080    0.0000 </r>
       <r>   18.3161    0.0000 </r>
       <r>   26.2543    0.0000 </r>
       <r>   28.3726    0.0000 </r>
       <r>   36.7152    0.0000 </r>
      </set>
      <set comment="kpoint 43">
       <r>   -0.4373    1.0000 </r>
       <r>    0.2655    1.0000 </r>
       <r>    2.1660    1.0000 </r>
       <r>    3.4820    1.0000 </r>
       <r>    4.9867    1.0000 </r>
       <r>    7.5395   -0.0006 </r>
       <r>   14.1880    0.0000 </r>
       <r>   19.1077    0.0000 </r>
       <r>   20.2377    0.0000 </r>
       <r>   25.8746    0.0000 </r>
       <r>   30.8944    0.0000 </r>
       <r>   35.0226    0.0000 </r>
      </set>
      <set comment="kpoint 44">
       <r>   -0.6025    1.0000 </r>
       <r>    1.1253    1.0000 </r>
       <r>    1.9792    1.0000 </r>
       <r>    2.4838    1.0000 </r>
       <r>    4.9086    1.0000 </r>
       <r>    7.2077   -0.0223 </r>
       <r>   12.5811    0.0000 </r>
       <r>   21.6488    0.0000 </r>
       <r>   22.1231    0.0000 </r>
       <r>   24.9437    0.0000 </r>
       <r>   33.1977    0.0000 </r>
       <r>   35.0117    0.0000 </r>
      </set>
      <set comment="kpoint 45">
       <r>   -0.8734    1.0000 </r>
       <r>   -0.4467    1.0000 </r>
       <r>    3.9159    1.0000 </r>
       <r>    4.3450    1.0000 </r>
       <r>    4.8289    1.0000 </r>
       <r>    5.2869    1.0000 </r>
       <r>   17.6170    0.0000 </r>
       <r>   19.0353    0.0000 </r>
       <r>   19.1768    0.0000 </r>
       <r>   25.1326    0.0000 </r>
       <r>   27.5516    0.0000 </r>
       <r>   37.7804    0.0000 </r>
      </set>
      <set comment="kpoint 46">
       <r>   -0.6523    1.0000 </r>
       <r>   -0.0454    1.0000 </r>
       <r>    2.3903    1.0000 </r>
       <r>    3.7276    1.0000 </r>
       <r>    4.3877    1.0000 </r>
       <r>    5.2251    1.0000 </r>
       <r>   18.2356    0.0000 </r>
       <r>   20.2288    0.0000 </r>
       <r>   21.2381    0.0000 </r>
       <r>   26.0173    0.0000 </r>
       <r>   27.6473    0.0000 </r>
       <r>   35.4544    0.0000 </r>
      </set>
      <set comment="kpoint 47">
       <r>   -0.7629    1.0000 </r>
       <r>    0.8344    1.0000 </r>
       <r>    1.5974    1.0000 </r>
       <r>    2.6848    1.0000 </r>
       <r>    4.3472    1.0000 </r>
       <r>    5.2252    1.0000 </r>
       <r>   16.6176    0.0000 </r>
       <r>   22.2495    0.0000 </r>
       <r>   23.1514    0.0000 </r>
       <r>   25.9575    0.0000 </r>
       <r>   30.9307    0.0000 </r>
       <r>   33.5360    0.0000 </r>
      </set>
      <set comment="kpoint 48">
       <r>   -1.1161    1.0000 </r>
       <r>    0.1567    1.0000 </r>
       <r>    2.4060    1.0000 </r>
       <r>    3.3219    1.0000 </r>
       <r>    3.6009    1.0000 </r>
       <r>    4.3260    1.0000 </r>
       <r>   21.1531    0.0000 </r>
       <r>   22.0500    0.0000 </r>
       <r>   23.2759    0.0000 </r>
       <r>   25.2920    0.0000 </r>
       <r>   26.2290    0.0000 </r>
       <r>   35.2832    0.0000 </r>
      </set>
      <set comment="kpoint 49">
       <r>   -1.6037    1.0000 </r>
       <r>    0.6044    1.0000 </r>
       <r>    2.0463    1.0000 </r>
       <r>    2.7656    1.0000 </r>
       <r>    3.2615    1.0000 </r>
       <r>    4.2522    1.0000 </r>
       <r>   20.8409    0.0000 </r>
       <r>   22.9755    0.0000 </r>
       <r>   24.9042    0.0000 </r>
       <r>   26.0441    0.0000 </r>
       <r>   28.8108    0.0000 </r>
       <r>   33.2230    0.0000 </r>
      </set>
      <set comment="kpoint 50">
       <r>   -2.5650    1.0000 </r>
       <r>    0.9002    1.0000 </r>
       <r>    2.3196    1.0000 </r>
       <r>    2.3839    1.0000 </r>
       <r>    2.8162    1.0000 </r>
       <r>    3.8599    1.0000 </r>
       <r>   23.2732    0.0000 </r>
       <r>   24.1030    0.0000 </r>
       <r>   25.1068    0.0000 </r>
       <r>   25.8945    0.0000 </r>
       <r>   30.2229    0.0000 </r>
       <r>   33.5802    0.0000 </r>
      </set>
      <set comment="kpoint 51">
       <r>   -3.2674    1.0000 </r>
       <r>    1.4190    1.0000 </r>
       <r>    1.9172    1.0000 </r>
       <r>    1.9172    1.0000 </r>
       <r>    3.4189    1.0000 </r>
       <r>    3.4189    1.0000 </r>
       <r>   22.5933    0.0000 </r>
       <r>   23.4411    0.0000 </r>
       <r>   27.6709    0.0000 </r>
       <r>   27.6709    0.0000 </r>
       <r>   31.2203    0.0000 </r>
       <r>   33.9269    0.0000 </r>
      </set>
      <set comment="kpoint 52">
       <r>   -2.5897    1.0000 </r>
       <r>    1.1735    1.0000 </r>
       <r>    2.0607    1.0000 </r>
       <r>    2.1582    1.0000 </r>
       <r>    3.0469    1.0000 </r>
       <r>    3.8741    1.0000 </r>
       <r>   21.5809    0.0000 </r>
       <r>   23.2949    0.0000 </r>
       <r>   26.2023    0.0000 </r>
       <r>   28.6838    0.0000 </r>
       <r>   29.7630    0.0000 </r>
       <r>   33.6814    0.0000 </r>
      </set>
      <set comment="kpoint 53">
       <r>   -1.4578    1.0000 </r>
       <r>    0.9863    1.0000 </r>
       <r>    1.9231    1.0000 </r>
       <r>    2.4897    1.0000 </r>
       <r>    2.9348    1.0000 </r>
       <r>    4.7397    1.0000 </r>
       <r>   19.1582    0.0000 </r>
       <r>   21.8918    0.0000 </r>
       <r>   25.7784    0.0000 </r>
       <r>   27.4943    0.0000 </r>
       <r>   30.6739    0.0000 </r>
       <r>   32.7014    0.0000 </r>
      </set>
      <set comment="kpoint 54">
       <r>   -0.7694    1.0000 </r>
       <r>    1.4368    1.0000 </r>
       <r>    1.8295    1.0000 </r>
       <r>    2.2446    1.0000 </r>
       <r>    3.7329    1.0000 </r>
       <r>    5.9338    1.0000 </r>
       <r>   15.2377    0.0000 </r>
       <r>   21.1777    0.0000 </r>
       <r>   24.0401    0.0000 </r>
       <r>   27.6410    0.0000 </r>
       <r>   30.1438    0.0000 </r>
       <r>   33.7965    0.0000 </r>
      </set>
      <set comment="kpoint 55">
       <r>   -0.7603    1.0000 </r>
       <r>    1.2617    1.0000 </r>
       <r>    2.1139    1.0000 </r>
       <r>    2.7827    1.0000 </r>
       <r>    4.5554    1.0000 </r>
       <r>    7.5647   -0.0003 </r>
       <r>   11.5377   -0.0000 </r>
       <r>   21.0907    0.0000 </r>
       <r>   23.4049    0.0000 </r>
       <r>   25.0699    0.0000 </r>
       <r>   32.7681    0.0000 </r>
       <r>   34.0192    0.0000 </r>
      </set>
      <set comment="kpoint 56">
       <r>   -0.8066    1.0000 </r>
       <r>    1.2278    1.0000 </r>
       <r>    2.1715    1.0000 </r>
       <r>    2.5964    1.0000 </r>
       <r>    4.9826    1.0000 </r>
       <r>    7.4983   -0.0016 </r>
       <r>   11.3459   -0.0000 </r>
       <r>   21.6970    0.0000 </r>
       <r>   23.6699    0.0000 </r>
       <r>   23.8966    0.0000 </r>
       <r>   33.8612    0.0000 </r>
       <r>   34.2292    0.0000 </r>
      </set>
      <set comment="kpoint 57">
       <r>   -0.8758    1.0000 </r>
       <r>    1.3297    1.0000 </r>
       <r>    1.6221    1.0000 </r>
       <r>    2.3649    1.0000 </r>
       <r>    4.8047    1.0000 </r>
       <r>    5.2723    1.0000 </r>
       <r>   15.0839    0.0000 </r>
       <r>   22.7406    0.0000 </r>
       <r>   23.5440    0.0000 </r>
       <r>   25.2391    0.0000 </r>
       <r>   32.7974    0.0000 </r>
       <r>   33.5632    0.0000 </r>
      </set>
      <set comment="kpoint 58">
       <r>   -1.4943    1.0000 </r>
       <r>    0.7545    1.0000 </r>
       <r>    1.9339    1.0000 </r>
       <r>    2.5252    1.0000 </r>
       <r>    3.6738    1.0000 </r>
       <r>    4.2610    1.0000 </r>
       <r>   19.3603    0.0000 </r>
       <r>   23.9628    0.0000 </r>
       <r>   24.2222    0.0000 </r>
       <r>   26.3768    0.0000 </r>
       <r>   29.7467    0.0000 </r>
       <r>   33.4203    0.0000 </r>
      </set>
      <set comment="kpoint 59">
       <r>   -2.2028    1.0000 </r>
       <r>    1.0415    1.0000 </r>
       <r>    2.0815    1.0000 </r>
       <r>    2.2423    1.0000 </r>
       <r>    3.2567    1.0000 </r>
       <r>    3.9329    1.0000 </r>
       <r>   20.4892    0.0000 </r>
       <r>   23.8858    0.0000 </r>
       <r>   25.7872    0.0000 </r>
       <r>   27.7318    0.0000 </r>
       <r>   30.1627    0.0000 </r>
       <r>   32.8402    0.0000 </r>
      </set>
      <set comment="kpoint 60">
       <r>   -1.2775    1.0000 </r>
       <r>    0.7428    1.0000 </r>
       <r>    1.8151    1.0000 </r>
       <r>    2.7311    1.0000 </r>
       <r>    3.2346    1.0000 </r>
       <r>    4.7152    1.0000 </r>
       <r>   19.3204    0.0000 </r>
       <r>   21.9302    0.0000 </r>
       <r>   24.9682    0.0000 </r>
       <r>   26.9587    0.0000 </r>
       <r>   30.4153    0.0000 </r>
       <r>   32.3152    0.0000 </r>
      </set>
      <set comment="kpoint 61">
       <r>   -0.2886    1.0000 </r>
       <r>    0.7684    1.0000 </r>
       <r>    1.3463    1.0000 </r>
       <r>    2.9897    1.0000 </r>
       <r>    3.6007    1.0000 </r>
       <r>    6.0468    1.0000 </r>
       <r>   16.8191    0.0000 </r>
       <r>   19.6307    0.0000 </r>
       <r>   23.4874    0.0000 </r>
       <r>   27.9687    0.0000 </r>
       <r>   29.4128    0.0000 </r>
       <r>   34.3185    0.0000 </r>
      </set>
      <set comment="kpoint 62">
       <r>   -0.1658    1.0000 </r>
       <r>    0.9592    1.0000 </r>
       <r>    1.6928    1.0000 </r>
       <r>    2.7566    1.0000 </r>
       <r>    4.4329    1.0000 </r>
       <r>    7.8359   -0.0000 </r>
       <r>   13.0958    0.0000 </r>
       <r>   19.3296    0.0000 </r>
       <r>   22.1471    0.0000 </r>
       <r>   26.3101    0.0000 </r>
       <r>   31.6115    0.0000 </r>
       <r>   35.4392    0.0000 </r>
      </set>
      <set comment="kpoint 63">
       <r>   -0.2502    1.0000 </r>
       <r>    0.8503    1.0000 </r>
       <r>    2.0772    1.0000 </r>
       <r>    2.6790    1.0000 </r>
       <r>    4.7877    1.0000 </r>
       <r>    9.5304   -0.0000 </r>
       <r>   10.6968   -0.0000 </r>
       <r>   20.0064    0.0000 </r>
       <r>   21.0723    0.0000 </r>
       <r>   25.7016    0.0000 </r>
       <r>   32.6695    0.0000 </r>
       <r>   35.8664    0.0000 </r>
      </set>
      <set comment="kpoint 64">
       <r>   -0.3026    1.0000 </r>
       <r>    0.9542    1.0000 </r>
       <r>    1.4384    1.0000 </r>
       <r>    2.9082    1.0000 </r>
       <r>    4.5801    1.0000 </r>
       <r>    7.0232    0.4559 </r>
       <r>   14.1329    0.0000 </r>
       <r>   20.2408    0.0000 </r>
       <r>   21.7053    0.0000 </r>
       <r>   26.3218    0.0000 </r>
       <r>   31.5856    0.0000 </r>
       <r>   34.7616    0.0000 </r>
      </set>
      <set comment="kpoint 65">
       <r>   -0.6367    1.0000 </r>
       <r>    0.4746    1.0000 </r>
       <r>    1.6112    1.0000 </r>
       <r>    3.1424    1.0000 </r>
       <r>    3.7147    1.0000 </r>
       <r>    5.3022    1.0000 </r>
       <r>   18.1323    0.0000 </r>
       <r>   20.7417    0.0000 </r>
       <r>   23.3146    0.0000 </r>
       <r>   27.1324    0.0000 </r>
       <r>   29.2307    0.0000 </r>
       <r>   33.3943    0.0000 </r>
      </set>
      <set comment="kpoint 66">
       <r>   -0.8778    1.0000 </r>
       <r>    0.4613    1.0000 </r>
       <r>    1.8459    1.0000 </r>
       <r>    2.8837    1.0000 </r>
       <r>    4.4289    1.0000 </r>
       <r>    4.5826    1.0000 </r>
       <r>   18.1246    0.0000 </r>
       <r>   22.6224    0.0000 </r>
       <r>   23.1727    0.0000 </r>
       <r>   25.4192    0.0000 </r>
       <r>   29.3077    0.0000 </r>
       <r>   34.3593    0.0000 </r>
      </set>
      <set comment="kpoint 67">
       <r>   -0.3264    1.0000 </r>
       <r>    0.2182    1.0000 </r>
       <r>    1.7360    1.0000 </r>
       <r>    3.6062    1.0000 </r>
       <r>    4.2356    1.0000 </r>
       <r>    6.0938    1.0000 </r>
       <r>   16.8831    0.0000 </r>
       <r>   19.4561    0.0000 </r>
       <r>   21.4467    0.0000 </r>
       <r>   27.1682    0.0000 </r>
       <r>   28.9333    0.0000 </r>
       <r>   34.2854    0.0000 </r>
      </set>
      <set comment="kpoint 68">
       <r>    0.0519    1.0000 </r>
       <r>    0.3921    1.0000 </r>
       <r>    1.4820    1.0000 </r>
       <r>    3.6967    1.0000 </r>
       <r>    4.5924    1.0000 </r>
       <r>    8.1293   -0.0000 </r>
       <r>   14.7641    0.0000 </r>
       <r>   17.3322    0.0000 </r>
       <r>   19.8677    0.0000 </r>
       <r>   28.2270    0.0000 </r>
       <r>   30.1011    0.0000 </r>
       <r>   34.5153    0.0000 </r>
      </set>
      <set comment="kpoint 69">
       <r>    0.2447    1.0000 </r>
       <r>    0.5827    1.0000 </r>
       <r>    1.5038    1.0000 </r>
       <r>    3.2696    1.0000 </r>
       <r>    4.8745    1.0000 </r>
       <r>   10.6832   -0.0000 </r>
       <r>   11.7674   -0.0000 </r>
       <r>   17.0356    0.0000 </r>
       <r>   19.1785    0.0000 </r>
       <r>   27.8199    0.0000 </r>
       <r>   31.9670    0.0000 </r>
       <r>   35.6875    0.0000 </r>
      </set>
      <set comment="kpoint 70">
       <r>    0.4930    1.0000 </r>
       <r>    0.6368    1.0000 </r>
       <r>    1.0825    1.0000 </r>
       <r>    3.3628    1.0000 </r>
       <r>    4.5635    1.0000 </r>
       <r>    8.9346   -0.0000 </r>
       <r>   14.1234    0.0000 </r>
       <r>   16.3942    0.0000 </r>
       <r>   20.2559    0.0000 </r>
       <r>   28.1219    0.0000 </r>
       <r>   30.8388    0.0000 </r>
       <r>   36.0239    0.0000 </r>
      </set>
      <set comment="kpoint 71">
       <r>    0.0642    1.0000 </r>
       <r>    0.6105    1.0000 </r>
       <r>    1.1860    1.0000 </r>
       <r>    3.3915    1.0000 </r>
       <r>    4.1129    1.0000 </r>
       <r>    6.9454    0.7679 </r>
       <r>   15.7481    0.0000 </r>
       <r>   18.4489    0.0000 </r>
       <r>   21.7497    0.0000 </r>
       <r>   27.8962    0.0000 </r>
       <r>   29.7470    0.0000 </r>
       <r>   34.5860    0.0000 </r>
      </set>
      <set comment="kpoint 72">
       <r>   -0.6178    1.0000 </r>
       <r>   -0.0913    1.0000 </r>
       <r>    2.7487    1.0000 </r>
       <r>    3.7249    1.0000 </r>
       <r>    5.0508    1.0000 </r>
       <r>    6.7258    1.0304 </r>
       <r>   15.4386    0.0000 </r>
       <r>   19.0846    0.0000 </r>
       <r>   19.9592    0.0000 </r>
       <r>   25.6647    0.0000 </r>
       <r>   29.2945    0.0000 </r>
       <r>   36.1346    0.0000 </r>
      </set>
      <set comment="kpoint 73">
       <r>   -0.5172    1.0000 </r>
       <r>   -0.1823    1.0000 </r>
       <r>    2.7860    1.0000 </r>
       <r>    4.2177    1.0000 </r>
       <r>    5.0290    1.0000 </r>
       <r>    8.6072   -0.0000 </r>
       <r>   14.3022    0.0000 </r>
       <r>   17.0035    0.0000 </r>
       <r>   18.2999    0.0000 </r>
       <r>   27.5450    0.0000 </r>
       <r>   29.2573    0.0000 </r>
       <r>   35.2318    0.0000 </r>
      </set>
      <set comment="kpoint 74">
       <r>   -0.2229    1.0000 </r>
       <r>    0.1741    1.0000 </r>
       <r>    2.2562    1.0000 </r>
       <r>    3.7253    1.0000 </r>
       <r>    5.2557    1.0000 </r>
       <r>   11.1491   -0.0000 </r>
       <r>   12.7796    0.0000 </r>
       <r>   15.4574    0.0000 </r>
       <r>   17.5536    0.0000 </r>
       <r>   29.0115    0.0000 </r>
       <r>   30.9327    0.0000 </r>
       <r>   33.7273    0.0000 </r>
      </set>
      <set comment="kpoint 75">
       <r>    0.1709    1.0000 </r>
       <r>    0.6999    1.0000 </r>
       <r>    1.4563    1.0000 </r>
       <r>    3.3430    1.0000 </r>
       <r>    4.9890    1.0000 </r>
       <r>   10.9443   -0.0000 </r>
       <r>   12.9483    0.0000 </r>
       <r>   15.1575    0.0000 </r>
       <r>   18.7644    0.0000 </r>
       <r>   28.5106    0.0000 </r>
       <r>   32.0721    0.0000 </r>
       <r>   34.8754    0.0000 </r>
      </set>
      <set comment="kpoint 76">
       <r>    0.1256    1.0000 </r>
       <r>    0.6669    1.0000 </r>
       <r>    1.5856    1.0000 </r>
       <r>    3.0655    1.0000 </r>
       <r>    4.6994    1.0000 </r>
       <r>    9.2054   -0.0000 </r>
       <r>   12.2427   -0.0000 </r>
       <r>   18.4290    0.0000 </r>
       <r>   20.3776    0.0000 </r>
       <r>   26.9325    0.0000 </r>
       <r>   31.8495    0.0000 </r>
       <r>   36.4738    0.0000 </r>
      </set>
      <set comment="kpoint 77">
       <r>   -0.8164    1.0000 </r>
       <r>   -0.3862    1.0000 </r>
       <r>    3.7447    1.0000 </r>
       <r>    4.3879    1.0000 </r>
       <r>    5.1294    1.0000 </r>
       <r>    9.4977   -0.0000 </r>
       <r>   12.9594    0.0000 </r>
       <r>   16.1538    0.0000 </r>
       <r>   18.6496    0.0000 </r>
       <r>   26.2248    0.0000 </r>
       <r>   29.5025    0.0000 </r>
       <r>   36.5194    0.0000 </r>
      </set>
      <set comment="kpoint 78">
       <r>   -0.6169    1.0000 </r>
       <r>   -0.2686    1.0000 </r>
       <r>    3.1877    1.0000 </r>
       <r>    4.2125    1.0000 </r>
       <r>    5.2567    1.0000 </r>
       <r>    9.9838   -0.0000 </r>
       <r>   13.0180    0.0000 </r>
       <r>   16.2295    0.0000 </r>
       <r>   17.7025    0.0000 </r>
       <r>   27.7426    0.0000 </r>
       <r>   29.3731    0.0000 </r>
       <r>   35.3226    0.0000 </r>
      </set>
      <set comment="kpoint 79">
       <r>   -0.1087    1.0000 </r>
       <r>    0.2428    1.0000 </r>
       <r>    1.9266    1.0000 </r>
       <r>    3.7862    1.0000 </r>
       <r>    5.0043    1.0000 </r>
       <r>    9.5854   -0.0000 </r>
       <r>   13.8366    0.0000 </r>
       <r>   16.2851    0.0000 </r>
       <r>   18.3254    0.0000 </r>
       <r>   28.7081    0.0000 </r>
       <r>   30.5085    0.0000 </r>
       <r>   34.1654    0.0000 </r>
      </set>
      <set comment="kpoint 80">
       <r>   -0.7334    1.0000 </r>
       <r>   -0.2864    1.0000 </r>
       <r>    3.3665    1.0000 </r>
       <r>    4.1207    1.0000 </r>
       <r>    5.1350    1.0000 </r>
       <r>    8.1783   -0.0000 </r>
       <r>   14.1246    0.0000 </r>
       <r>   17.2336    0.0000 </r>
       <r>   19.0995    0.0000 </r>
       <r>   25.9985    0.0000 </r>
       <r>   29.4217    0.0000 </r>
       <r>   36.4612    0.0000 </r>
      </set>
      <set comment="kpoint 81">
       <r>   -0.3710    1.0000 </r>
       <r>   -0.0129    1.0000 </r>
       <r>    2.2242    1.0000 </r>
       <r>    4.0158    1.0000 </r>
       <r>    4.6757    1.0000 </r>
       <r>    7.2082   -0.0226 </r>
       <r>   15.6134    0.0000 </r>
       <r>   18.1952    0.0000 </r>
       <r>   19.6116    0.0000 </r>
       <r>   27.2946    0.0000 </r>
       <r>   29.0710    0.0000 </r>
       <r>   34.9143    0.0000 </r>
      </set>
      <set comment="kpoint 82">
       <r>   -0.5949    1.0000 </r>
       <r>    0.1727    1.0000 </r>
       <r>    2.1346    1.0000 </r>
       <r>    3.2927    1.0000 </r>
       <r>    4.8629    1.0000 </r>
       <r>    5.4529    1.0000 </r>
       <r>   16.7884    0.0000 </r>
       <r>   21.1626    0.0000 </r>
       <r>   21.2393    0.0000 </r>
       <r>   25.3789    0.0000 </r>
       <r>   29.2061    0.0000 </r>
       <r>   35.3724    0.0000 </r>
      </set>
      <set comment="kpoint 83">
       <r>   -2.1397    1.0000 </r>
       <r>    1.4699    1.0000 </r>
       <r>    1.9948    1.0000 </r>
       <r>    1.9948    1.0000 </r>
       <r>    3.6825    1.0000 </r>
       <r>    3.6825    1.0000 </r>
       <r>   18.9385    0.0000 </r>
       <r>   23.4414    0.0000 </r>
       <r>   28.3924    0.0000 </r>
       <r>   28.3924    0.0000 </r>
       <r>   30.1800    0.0000 </r>
       <r>   31.7420    0.0000 </r>
      </set>
      <set comment="kpoint 84">
       <r>   -1.4970    1.0000 </r>
       <r>    1.3305    1.0000 </r>
       <r>    1.9256    1.0000 </r>
       <r>    2.1572    1.0000 </r>
       <r>    3.3985    1.0000 </r>
       <r>    4.6338    1.0000 </r>
       <r>   17.7485    0.0000 </r>
       <r>   22.8462    0.0000 </r>
       <r>   25.3542    0.0000 </r>
       <r>   28.9233    0.0000 </r>
       <r>   30.0093    0.0000 </r>
       <r>   31.8906    0.0000 </r>
      </set>
      <set comment="kpoint 85">
       <r>   -0.4251    1.0000 </r>
       <r>    1.0108    1.0000 </r>
       <r>    1.5819    1.0000 </r>
       <r>    2.6089    1.0000 </r>
       <r>    3.2821    1.0000 </r>
       <r>    6.0338    1.0000 </r>
       <r>   16.7688    0.0000 </r>
       <r>   19.6421    0.0000 </r>
       <r>   24.5916    0.0000 </r>
       <r>   28.0361    0.0000 </r>
       <r>   29.1264    0.0000 </r>
       <r>   34.6128    0.0000 </r>
      </set>
      <set comment="kpoint 86">
       <r>    0.1013    1.0000 </r>
       <r>    1.1033    1.0000 </r>
       <r>    1.4156    1.0000 </r>
       <r>    2.7952    1.0000 </r>
       <r>    3.8192    1.0000 </r>
       <r>    7.5964   -0.0001 </r>
       <r>   14.8805    0.0000 </r>
       <r>   17.3413    0.0000 </r>
       <r>   24.3813    0.0000 </r>
       <r>   25.2955    0.0000 </r>
       <r>   31.2054    0.0000 </r>
       <r>   34.6860    0.0000 </r>
      </set>
      <set comment="kpoint 87">
       <r>   -0.1828    1.0000 </r>
       <r>    0.8819    1.0000 </r>
       <r>    1.9927    1.0000 </r>
       <r>    2.8785    1.0000 </r>
       <r>    4.6104    1.0000 </r>
       <r>    9.6567   -0.0000 </r>
       <r>   11.4026   -0.0000 </r>
       <r>   17.8867    0.0000 </r>
       <r>   22.8362    0.0000 </r>
       <r>   24.4845    0.0000 </r>
       <r>   33.8250    0.0000 </r>
       <r>   34.7194    0.0000 </r>
      </set>
      <set comment="kpoint 88">
       <r>   -0.4263    1.0000 </r>
       <r>    0.6140    1.0000 </r>
       <r>    2.0317    1.0000 </r>
       <r>    3.0665    1.0000 </r>
       <r>    5.0489    1.0000 </r>
       <r>    8.1332   -0.0000 </r>
       <r>   12.7741    0.0000 </r>
       <r>   19.3923    0.0000 </r>
       <r>   21.3601    0.0000 </r>
       <r>   24.9356    0.0000 </r>
       <r>   32.8394    0.0000 </r>
       <r>   34.9891    0.0000 </r>
      </set>
      <set comment="kpoint 89">
       <r>   -1.2972    1.0000 </r>
       <r>    1.5553    1.0000 </r>
       <r>    1.7419    1.0000 </r>
       <r>    2.1373    1.0000 </r>
       <r>    4.3007    1.0000 </r>
       <r>    4.4892    1.0000 </r>
       <r>   16.3464    0.0000 </r>
       <r>   23.0446    0.0000 </r>
       <r>   25.0446    0.0000 </r>
       <r>   26.9005    0.0000 </r>
       <r>   31.6870    0.0000 </r>
       <r>   32.7617    0.0000 </r>
      </set>
      <set comment="kpoint 90">
       <r>   -0.6218    1.0000 </r>
       <r>    1.3248    1.0000 </r>
       <r>    1.3921    1.0000 </r>
       <r>    2.5492    1.0000 </r>
       <r>    4.1530    1.0000 </r>
       <r>    5.9825    1.0000 </r>
       <r>   15.2736    0.0000 </r>
       <r>   21.2570    0.0000 </r>
       <r>   23.2360    0.0000 </r>
       <r>   26.7488    0.0000 </r>
       <r>   31.0206    0.0000 </r>
       <r>   34.1081    0.0000 </r>
      </set>
      <set comment="kpoint 91">
       <r>    0.3233    1.0000 </r>
       <r>    0.8748    1.0000 </r>
       <r>    1.0748    1.0000 </r>
       <r>    3.1302    1.0000 </r>
       <r>    4.0832    1.0000 </r>
       <r>    7.7400   -0.0000 </r>
       <r>   14.8682    0.0000 </r>
       <r>   17.3661    0.0000 </r>
       <r>   22.2354    0.0000 </r>
       <r>   27.2379    0.0000 </r>
       <r>   30.5755    0.0000 </r>
       <r>   35.8230    0.0000 </r>
      </set>
      <set comment="kpoint 92">
       <r>    0.2123    1.0000 </r>
       <r>    0.7704    1.0000 </r>
       <r>    1.4706    1.0000 </r>
       <r>    3.2470    1.0000 </r>
       <r>    4.5780    1.0000 </r>
       <r>    9.6533   -0.0000 </r>
       <r>   13.4838    0.0000 </r>
       <r>   15.6571    0.0000 </r>
       <r>   20.7215    0.0000 </r>
       <r>   26.9602    0.0000 </r>
       <r>   32.1754    0.0000 </r>
       <r>   36.6070    0.0000 </r>
      </set>
      <set comment="kpoint 93">
       <r>   -0.1742    1.0000 </r>
       <r>    0.4359    1.0000 </r>
       <r>    1.9542    1.0000 </r>
       <r>    3.5416    1.0000 </r>
       <r>    4.9363    1.0000 </r>
       <r>    9.9805   -0.0000 </r>
       <r>   12.3591   -0.0000 </r>
       <r>   17.0542    0.0000 </r>
       <r>   19.3891    0.0000 </r>
       <r>   27.0143    0.0000 </r>
       <r>   32.2849    0.0000 </r>
       <r>   34.3547    0.0000 </r>
      </set>
      <set comment="kpoint 94">
       <r>   -0.5680    1.0000 </r>
       <r>    0.9460    1.0000 </r>
       <r>    1.7508    1.0000 </r>
       <r>    2.6845    1.0000 </r>
       <r>    5.0005    1.0000 </r>
       <r>    6.5792    1.0045 </r>
       <r>   13.8689    0.0000 </r>
       <r>   21.4617    0.0000 </r>
       <r>   22.3033    0.0000 </r>
       <r>   24.6546    0.0000 </r>
       <r>   33.0205    0.0000 </r>
       <r>   34.3548    0.0000 </r>
      </set>
      <set comment="kpoint 95">
       <r>   -0.1615    1.0000 </r>
       <r>    0.6318    1.0000 </r>
       <r>    1.6515    1.0000 </r>
       <r>    3.2782    1.0000 </r>
       <r>    4.8232    1.0000 </r>
       <r>    8.3967   -0.0000 </r>
       <r>   13.1247    0.0000 </r>
       <r>   18.9338    0.0000 </r>
       <r>   20.1833    0.0000 </r>
       <r>   26.5568    0.0000 </r>
       <r>   31.9462    0.0000 </r>
       <r>   34.7242    0.0000 </r>
      </set>
      <set comment="kpoint 96">
       <r>    0.2432    1.0000 </r>
       <r>    0.7227    1.0000 </r>
       <r>    1.2517    1.0000 </r>
       <r>    3.4079    1.0000 </r>
       <r>    4.9904    1.0000 </r>
       <r>   10.3649   -0.0000 </r>
       <r>   13.5179    0.0000 </r>
       <r>   15.5117    0.0000 </r>
       <r>   18.4837    0.0000 </r>
       <r>   29.3020    0.0000 </r>
       <r>   31.0385    0.0000 </r>
       <r>   34.8828    0.0000 </r>
      </set>
      <set comment="kpoint 97">
       <r>    0.1002    1.0000 </r>
       <r>    0.7296    1.0000 </r>
       <r>    1.4327    1.0000 </r>
       <r>    3.3550    1.0000 </r>
       <r>    5.2555    1.0000 </r>
       <r>   11.7662   -0.0000 </r>
       <r>   13.1213    0.0000 </r>
       <r>   14.5661    0.0000 </r>
       <r>   17.4609    0.0000 </r>
       <r>   30.1600    0.0000 </r>
       <r>   31.6755    0.0000 </r>
       <r>   33.3877    0.0000 </r>
      </set>
      <set comment="kpoint 98">
       <r>   -0.4124    1.0000 </r>
       <r>    0.3941    1.0000 </r>
       <r>    2.3644    1.0000 </r>
       <r>    3.4668    1.0000 </r>
       <r>    4.9592    1.0000 </r>
       <r>    9.8270   -0.0000 </r>
       <r>   11.9372   -0.0000 </r>
       <r>   17.2310    0.0000 </r>
       <r>   20.7370    0.0000 </r>
       <r>   25.3851    0.0000 </r>
       <r>   32.7177    0.0000 </r>
       <r>   35.3907    0.0000 </r>
      </set>
      <set comment="kpoint 99">
       <r>   -0.2254    1.0000 </r>
       <r>    0.3552    1.0000 </r>
       <r>    2.1898    1.0000 </r>
       <r>    3.6395    1.0000 </r>
       <r>    5.0013    1.0000 </r>
       <r>   11.3086   -0.0000 </r>
       <r>   12.1033   -0.0000 </r>
       <r>   15.3276    0.0000 </r>
       <r>   19.0615    0.0000 </r>
       <r>   27.3518    0.0000 </r>
       <r>   32.6808    0.0000 </r>
       <r>   33.8650    0.0000 </r>
      </set>
      <set comment="kpoint 100">
       <r>   -0.4379    1.0000 </r>
       <r>    0.2907    1.0000 </r>
       <r>    2.5902    1.0000 </r>
       <r>    3.7709    1.0000 </r>
       <r>    4.8078    1.0000 </r>
       <r>   11.1093   -0.0000 </r>
       <r>   11.7336   -0.0000 </r>
       <r>   15.4217    0.0000 </r>
       <r>   20.4271    0.0000 </r>
       <r>   25.6922    0.0000 </r>
       <r>   32.6821    0.0000 </r>
       <r>   35.5586    0.0000 </r>
      </set>
      <set comment="kpoint 101">
       <r>   -1.4724    1.0000 </r>
       <r>    1.8069    1.0000 </r>
       <r>    1.8069    1.0000 </r>
       <r>    2.7210    1.0000 </r>
       <r>    4.3383    1.0000 </r>
       <r>    4.3383    1.0000 </r>
       <r>   14.8426    0.0000 </r>
       <r>   22.4061    0.0000 </r>
       <r>   26.9752    0.0000 </r>
       <r>   26.9752    0.0000 </r>
       <r>   32.1635    0.0000 </r>
       <r>   32.2784    0.0000 </r>
      </set>
      <set comment="kpoint 102">
       <r>   -1.1012    1.0000 </r>
       <r>    1.5827    1.0000 </r>
       <r>    1.9324    1.0000 </r>
       <r>    2.6508    1.0000 </r>
       <r>    4.2022    1.0000 </r>
       <r>    5.7219    1.0000 </r>
       <r>   13.6797    0.0000 </r>
       <r>   22.1271    0.0000 </r>
       <r>   24.0449    0.0000 </r>
       <r>   26.9689    0.0000 </r>
       <r>   31.5244    0.0000 </r>
       <r>   33.3274    0.0000 </r>
      </set>
      <set comment="kpoint 103">
       <r>   -0.3191    1.0000 </r>
       <r>    1.1284    1.0000 </r>
       <r>    2.0434    1.0000 </r>
       <r>    2.4644    1.0000 </r>
       <r>    4.1739    1.0000 </r>
       <r>    7.6215   -0.0001 </r>
       <r>   13.0962    0.0000 </r>
       <r>   19.2848    0.0000 </r>
       <r>   23.9006    0.0000 </r>
       <r>   25.1952    0.0000 </r>
       <r>   31.8734    0.0000 </r>
       <r>   34.3940    0.0000 </r>
      </set>
      <set comment="kpoint 104">
       <r>   -0.0393    1.0000 </r>
[...]
      <set comment="kpoint 93">
       <set comment="band 1">
        <r>  0.0498  0.0241  0.8178 </r>
       </set>
       <set comment="band 2">
        <r>  0.0000  0.0833  0.8061 </r>
       </set>
       <set comment="band 3">
        <r>  0.0359  0.1155  0.7532 </r>
       </set>
       <set comment="band 4">
        <r>  0.0017  0.0271  0.9155 </r>
       </set>
       <set comment="band 5">
        <r>  0.0039  0.0021  0.9664 </r>
       </set>
       <set comment="band 6">
        <r>  0.2616  0.2523  0.3416 </r>
       </set>
       <set comment="band 7">
        <r>  0.2756  0.3410  0.1375 </r>
       </set>
       <set comment="band 8">
        <r>  0.1157  0.4025  0.2504 </r>
       </set>
       <set comment="band 9">
        <r>  0.0021  0.4185  0.2303 </r>
       </set>
       <set comment="band 10">
        <r>  0.0233  0.1503  0.2229 </r>
       </set>
       <set comment="band 11">
        <r>  0.0289  0.1122  0.2052 </r>
       </set>
       <set comment="band 12">
        <r>  0.0548  0.0295  0.2414 </r>
       </set>
      </set>
      <set comment="kpoint 94">
       <set comment="band 1">
        <r>  0.1733  0.0444  0.6597 </r>
       </set>
       <set comment="band 2">
        <r>  0.0087  0.0790  0.7956 </r>
       </set>
       <set comment="band 3">
        <r>  0.0836  0.0917  0.7264 </r>
       </set>
       <set comment="band 4">
        <r>  0.0000  0.0119  0.9360 </r>
       </set>
       <set comment="band 5">
        <r>  0.0000  0.0006  0.9783 </r>
       </set>
       <set comment="band 6">
        <r>  0.1383  0.1998  0.5485 </r>
       </set>
       <set comment="band 7">
        <r>  0.2754  0.3064  0.1800 </r>
       </set>
       <set comment="band 8">
        <r>  0.0449  0.2506  0.2362 </r>
       </set>
       <set comment="band 9">
        <r>  0.0000  0.5247  0.1075 </r>
       </set>
       <set comment="band 10">
        <r>  0.0499  0.1825  0.2043 </r>
       </set>
       <set comment="band 11">
        <r>  0.0457  0.2196  0.1350 </r>
       </set>
       <set comment="band 12">
        <r>  0.0000  0.0074  0.1987 </r>
       </set>
      </set>
      <set comment="kpoint 95">
       <set comment="band 1">
        <r>  0.0879  0.0415  0.7609 </r>
       </set>
       <set comment="band 2">
        <r>  0.0007  0.0752  0.8089 </r>
       </set>
       <set comment="band 3">
        <r>  0.0656  0.0975  0.7390 </r>
       </set>
       <set comment="band 4">
        <r>  0.0012  0.0323  0.9094 </r>
       </set>
       <set comment="band 5">
        <r>  0.0011  0.0072  0.9621 </r>
       </set>
       <set comment="band 6">
        <r>  0.2097  0.2227  0.4407 </r>
       </set>
       <set comment="band 7">
        <r>  0.2849  0.3181  0.1557 </r>
       </set>
       <set comment="band 8">
        <r>  0.0942  0.4603  0.1878 </r>
       </set>
       <set comment="band 9">
        <r>  0.0037  0.3257  0.2758 </r>
       </set>
       <set comment="band 10">
        <r>  0.0200  0.1964  0.1471 </r>
       </set>
       <set comment="band 11">
        <r>  0.0119  0.1163  0.2057 </r>
       </set>
       <set comment="band 12">
        <r>  0.0777  0.0423  0.2879 </r>
       </set>
      </set>
      <set comment="kpoint 96">
       <set comment="band 1">
        <r>  0.0065  0.0577  0.8057 </r>
       </set>
       <set comment="band 2">
        <r>  0.0110  0.0775  0.8240 </r>
       </set>
       <set comment="band 3">
        <r>  0.0360  0.0993  0.7694 </r>
       </set>
       <set comment="band 4">
        <r>  0.0179  0.0187  0.9004 </r>
       </set>
       <set comment="band 5">
        <r>  0.0012  0.0056  0.9663 </r>
       </set>
       <set comment="band 6">
        <r>  0.3704  0.1973  0.2659 </r>
       </set>
       <set comment="band 7">
        <r>  0.1958  0.3870  0.1913 </r>
       </set>
       <set comment="band 8">
        <r>  0.1065  0.4748  0.1931 </r>
       </set>
       <set comment="band 9">
        <r>  0.0089  0.3308  0.3432 </r>
       </set>
       <set comment="band 10">
        <r>  0.0028  0.1914  0.1210 </r>
       </set>
       <set comment="band 11">
        <r>  0.0002  0.0435  0.2663 </r>
       </set>
       <set comment="band 12">
        <r>  0.0440  0.1672  0.2367 </r>
       </set>
      </set>
      <set comment="kpoint 97">
       <set comment="band 1">
        <r>  0.0045  0.0555  0.8081 </r>
       </set>
       <set comment="band 2">
        <r>  0.0032  0.0803  0.8302 </r>
       </set>
       <set comment="band 3">
        <r>  0.0054  0.1055  0.7998 </r>
       </set>
       <set comment="band 4">
        <r>  0.0405  0.0048  0.8871 </r>
       </set>
       <set comment="band 5">
        <r>  0.0002  0.0016  0.9776 </r>
       </set>
       <set comment="band 6">
        <r>  0.5284  0.1240  0.1651 </r>
       </set>
       <set comment="band 7">
        <r>  0.0911  0.4839  0.2090 </r>
       </set>
       <set comment="band 8">
        <r>  0.0796  0.4957  0.2011 </r>
       </set>
       <set comment="band 9">
        <r>  0.0000  0.3288  0.3698 </r>
       </set>
       <set comment="band 10">
        <r>  0.0028  0.1004  0.2421 </r>
       </set>
       <set comment="band 11">
        <r>  0.0019  0.0735  0.2114 </r>
       </set>
       <set comment="band 12">
        <r>  0.0222  0.2364  0.1527 </r>
       </set>
      </set>
      <set comment="kpoint 98">
       <set comment="band 1">
        <r>  0.0631  0.0089  0.8249 </r>
       </set>
       <set comment="band 2">
        <r>  0.0005  0.0862  0.7977 </r>
       </set>
       <set comment="band 3">
        <r>  0.0347  0.1385  0.7287 </r>
       </set>
       <set comment="band 4">
        <r>  0.0000  0.0144  0.9349 </r>
       </set>
       <set comment="band 5">
        <r>  0.0000  0.0001  0.9753 </r>
       </set>
       <set comment="band 6">
        <r>  0.2072  0.2846  0.3692 </r>
       </set>
       <set comment="band 7">
        <r>  0.3196  0.3136  0.1115 </r>
       </set>
       <set comment="band 8">
        <r>  0.1068  0.3505  0.3030 </r>
       </set>
       <set comment="band 9">
        <r>  0.0000  0.5434  0.1000 </r>
       </set>
       <set comment="band 10">
        <r>  0.0440  0.0770  0.3109 </r>
       </set>
       <set comment="band 11">
        <r>  0.0747  0.1081  0.2300 </r>
       </set>
       <set comment="band 12">
        <r>  0.0000  0.0019  0.1554 </r>
       </set>
      </set>
      <set comment="kpoint 99">
       <set comment="band 1">
        <r>  0.0358  0.0169  0.8361 </r>
       </set>
       <set comment="band 2">
        <r>  0.0004  0.0863  0.8074 </r>
       </set>
       <set comment="band 3">
        <r>  0.0052  0.1321  0.7711 </r>
       </set>
       <set comment="band 4">
        <r>  0.0129  0.0142  0.9169 </r>
       </set>
       <set comment="band 5">
        <r>  0.0010  0.0032  0.9697 </r>
       </set>
       <set comment="band 6">
        <r>  0.4885  0.1474  0.1793 </r>
       </set>
       <set comment="band 7">
        <r>  0.0709  0.4933  0.2190 </r>
       </set>
       <set comment="band 8">
        <r>  0.1243  0.3671  0.2911 </r>
       </set>
       <set comment="band 9">
        <r>  0.0060  0.4455  0.2145 </r>
       </set>
       <set comment="band 10">
        <r>  0.0251  0.1266  0.2835 </r>
       </set>
       <set comment="band 11">
        <r>  0.0610  0.1217  0.2134 </r>
       </set>
       <set comment="band 12">
        <r>  0.0142  0.0228  0.1706 </r>
       </set>
      </set>
      <set comment="kpoint 100">
       <set comment="band 1">
        <r>  0.0486  0.0010  0.8467 </r>
       </set>
       <set comment="band 2">
        <r>  0.0001  0.0892  0.7979 </r>
       </set>
       <set comment="band 3">
        <r>  0.0045  0.1511  0.7507 </r>
       </set>
       <set comment="band 4">
        <r>  0.0000  0.0150  0.9364 </r>
       </set>
       <set comment="band 5">
        <r>  0.0000  0.0001  0.9716 </r>
       </set>
       <set comment="band 6">
        <r>  0.5013  0.1396  0.1645 </r>
       </set>
       <set comment="band 7">
        <r>  0.0436  0.5080  0.2361 </r>
       </set>
       <set comment="band 8">
        <r>  0.1331  0.3247  0.3291 </r>
       </set>
       <set comment="band 9">
        <r>  0.0000  0.5474  0.1012 </r>
       </set>
       <set comment="band 10">
        <r>  0.0453  0.0645  0.3564 </r>
       </set>
       <set comment="band 11">
        <r>  0.0849  0.0896  0.2444 </r>
       </set>
       <set comment="band 12">
        <r>  0.0000  0.0002  0.1318 </r>
       </set>
      </set>
      <set comment="kpoint 101">
       <set comment="band 1">
        <r>  0.3441  0.0334  0.4725 </r>
       </set>
       <set comment="band 2">
        <r>  0.0000  0.0008  0.9491 </r>
       </set>
       <set comment="band 3">
        <r>  0.0000  0.0008  0.9491 </r>
       </set>
       <set comment="band 4">
        <r>  0.1471  0.2980  0.3615 </r>
       </set>
       <set comment="band 5">
        <r>  0.0000  0.0027  0.9636 </r>
       </set>
       <set comment="band 6">
        <r>  0.0000  0.0027  0.9636 </r>
       </set>
       <set comment="band 7">
        <r>  0.2483  0.2694  0.2490 </r>
       </set>
       <set comment="band 8">
        <r>  0.0002  0.0305  0.0343 </r>
       </set>
       <set comment="band 9">
        <r>  0.0000  0.5104  0.0802 </r>
       </set>
       <set comment="band 10">
        <r>  0.0000  0.5104  0.0802 </r>
       </set>
       <set comment="band 11">
        <r>  0.0616  0.0901  0.1179 </r>
       </set>
       <set comment="band 12">
        <r>  0.0000  0.0004  0.3895 </r>
       </set>
      </set>
      <set comment="kpoint 102">
       <set comment="band 1">
        <r>  0.2696  0.0351  0.5625 </r>
       </set>
       <set comment="band 2">
        <r>  0.0005  0.0054  0.9347 </r>
       </set>
       <set comment="band 3">
        <r>  0.0000  0.0010  0.9460 </r>
       </set>
       <set comment="band 4">
        <r>  0.0847  0.2530  0.4954 </r>
       </set>
       <set comment="band 5">
        <r>  0.0000  0.0028  0.9601 </r>
       </set>
       <set comment="band 6">
        <r>  0.0809  0.1093  0.7345 </r>
       </set>
       <set comment="band 7">
        <r>  0.2885  0.2512  0.2561 </r>
       </set>
       <set comment="band 8">
        <r>  0.0024  0.1046  0.1244 </r>
       </set>
       <set comment="band 9">
        <r>  0.0235  0.4172  0.0487 </r>
       </set>
       <set comment="band 10">
        <r>  0.0000  0.4877  0.0944 </r>
       </set>
       <set comment="band 11">
        <r>  0.0142  0.0391  0.2369 </r>
       </set>
       <set comment="band 12">
        <r>  0.0000  0.0221  0.5142 </r>
       </set>
      </set>
      <set comment="kpoint 103">
       <set comment="band 1">
        <r>  0.1757  0.0548  0.6547 </r>
       </set>
       <set comment="band 2">
        <r>  0.0007  0.0298  0.8808 </r>
       </set>
       <set comment="band 3">
        <r>  0.0277  0.1946  0.6441 </r>
       </set>
       <set comment="band 4">
        <r>  0.0000  0.0072  0.9361 </r>
       </set>
       <set comment="band 5">
        <r>  0.0000  0.0020  0.9599 </r>
       </set>
       <set comment="band 6">
        <r>  0.2084  0.1632  0.5093 </r>
       </set>
       <set comment="band 7">
        <r>  0.2742  0.2747  0.2527 </r>
       </set>
       <set comment="band 8">
        <r>  0.0516  0.4085  0.2331 </r>
       </set>
       <set comment="band 9">
        <r>  0.0175  0.1053  0.0938 </r>
       </set>
       <set comment="band 10">
        <r>  0.0000  0.4978  0.1609 </r>
       </set>
       <set comment="band 11">
        <r>  0.0048  0.0410  0.1429 </r>
       </set>
       <set comment="band 12">
        <r>  0.0000  0.0053  0.3757 </r>
       </set>
      </set>
      <set comment="kpoint 104">
       <set comment="band 1">
        <r>  0.0702  0.0093  0.8283 </r>
       </set>
       <set comment="band 2">
        <r>  0.0133  0.1343  0.7169 </r>
       </set>
       <set comment="band 3">
        <r>  0.0001  0.1298  0.7773 </r>
       </set>
       <set comment="band 4">
        <r>  0.0000  0.0146  0.9294 </r>
       </set>
       <set comment="band 5">
        <r>  0.0000  0.0004  0.9644 </r>
       </set>
       <set comment="band 6">
        <r>  0.3979  0.1522  0.2678 </r>
       </set>
       <set comment="band 7">
        <r>  0.1186  0.3991  0.2965 </r>
       </set>
       <set comment="band 8">
        <r>  0.1357  0.3728  0.2660 </r>
       </set>
       <set comment="band 9">
        <r>  0.0000  0.5238  0.1525 </r>
       </set>
       <set comment="band 10">
        <r>  0.0252  0.0709  0.2497 </r>
       </set>
       <set comment="band 11">
        <r>  0.0002  0.0437  0.0530 </r>
       </set>
       <set comment="band 12">
        <r>  0.0000  0.0002  0.2139 </r>
       </set>
      </set>
      <set comment="kpoint 105">
       <set comment="band 1">
        <r>  0.2330  0.0228  0.6230 </r>
       </set>
       <set comment="band 2">
        <r>  0.0003  0.0057  0.9287 </r>
       </set>
       <set comment="band 3">
        <r>  0.0000  0.0044  0.9432 </r>
       </set>
       <set comment="band 4">
        <r>  0.0513  0.2195  0.5843 </r>
       </set>
       <set comment="band 5">
        <r>  0.0000  0.0005  0.9766 </r>
       </set>
       <set comment="band 6">
        <r>  0.0851  0.2328  0.5519 </r>
       </set>
       <set comment="band 7">
        <r>  0.3506  0.1946  0.2818 </r>
       </set>
       <set comment="band 8">
        <r>  0.0009  0.0378  0.0662 </r>
       </set>
       <set comment="band 9">
        <r>  0.0000  0.5145  0.0702 </r>
       </set>
       <set comment="band 10">
        <r>  0.0312  0.4428  0.1195 </r>
       </set>
       <set comment="band 11">
        <r>  0.0000  0.0016  0.3817 </r>
       </set>
       <set comment="band 12">
        <r>  0.0038  0.0113  0.5048 </r>
       </set>
      </set>
      <set comment="kpoint 106">
       <set comment="band 1">
        <r>  0.1721  0.0407  0.6753 </r>
       </set>
       <set comment="band 2">
        <r>  0.0001  0.0179  0.8962 </r>
       </set>
       <set comment="band 3">
        <r>  0.0049  0.0660  0.8510 </r>
       </set>
       <set comment="band 4">
        <r>  0.0133  0.1342  0.7493 </r>
       </set>
       <set comment="band 5">
        <r>  0.0007  0.0052  0.9641 </r>
       </set>
       <set comment="band 6">
        <r>  0.1254  0.2882  0.4348 </r>
       </set>
       <set comment="band 7">
        <r>  0.3760  0.1770  0.2802 </r>
       </set>
       <set comment="band 8">
        <r>  0.0300  0.3687  0.1839 </r>
       </set>
       <set comment="band 9">
        <r>  0.0296  0.2690  0.1666 </r>
       </set>
       <set comment="band 10">
        <r>  0.0023  0.3718  0.0354 </r>
       </set>
       <set comment="band 11">
        <r>  0.0063  0.0201  0.3773 </r>
       </set>
       <set comment="band 12">
        <r>  0.0011  0.0111  0.3237 </r>
       </set>
      </set>
      <set comment="kpoint 107">
       <set comment="band 1">
        <r>  0.0876  0.0430  0.7712 </r>
       </set>
       <set comment="band 2">
        <r>  0.0084  0.0678  0.8056 </r>
       </set>
       <set comment="band 3">
        <r>  0.0002  0.1409  0.7575 </r>
       </set>
       <set comment="band 4">
        <r>  0.0019  0.0185  0.9212 </r>
       </set>
       <set comment="band 5">
        <r>  0.0055  0.0014  0.9611 </r>
       </set>
       <set comment="band 6">
        <r>  0.3361  0.2081  0.2768 </r>
       </set>
       <set comment="band 7">
        <r>  0.2017  0.3226  0.2982 </r>
       </set>
       <set comment="band 8">
        <r>  0.0975  0.4213  0.2264 </r>
       </set>
       <set comment="band 9">
        <r>  0.0137  0.3624  0.2422 </r>
       </set>
       <set comment="band 10">
        <r>  0.0039  0.2201  0.1015 </r>
       </set>
       <set comment="band 11">
        <r>  0.0016  0.0210  0.2780 </r>
       </set>
       <set comment="band 12">
        <r>  0.0007  0.0103  0.1509 </r>
       </set>
      </set>
      <set comment="kpoint 108">
       <set comment="band 1">
        <r>  0.1394  0.0347  0.7212 </r>
       </set>
       <set comment="band 2">
        <r>  0.0022  0.0452  0.8506 </r>
       </set>
       <set comment="band 3">
        <r>  0.0103  0.1675  0.7100 </r>
       </set>
       <set comment="band 4">
        <r>  0.0000  0.0095  0.9351 </r>
       </set>
       <set comment="band 5">
        <r>  0.0000  0.0004  0.9738 </r>
       </set>
       <set comment="band 6">
        <r>  0.0149  0.4475  0.3422 </r>
       </set>
       <set comment="band 7">
        <r>  0.5101  0.0504  0.2992 </r>
       </set>
       <set comment="band 8">
        <r>  0.0549  0.3509  0.2285 </r>
       </set>
       <set comment="band 9">
        <r>  0.0000  0.5215  0.1095 </r>
       </set>
       <set comment="band 10">
        <r>  0.0264  0.1327  0.1380 </r>
       </set>
       <set comment="band 11">
        <r>  0.0055  0.0241  0.3093 </r>
       </set>
       <set comment="band 12">
        <r>  0.0000  0.0029  0.3097 </r>
       </set>
      </set>
      <set comment="kpoint 109">
       <set comment="band 1">
        <r>  0.2367  0.0030  0.6445 </r>
       </set>
       <set comment="band 2">
        <r>  0.0000  0.0001  0.9479 </r>
       </set>
       <set comment="band 3">
        <r>  0.0000  0.0001  0.9479 </r>
       </set>
       <set comment="band 4">
        <r>  0.0000  0.0005  0.9748 </r>
       </set>
       <set comment="band 5">
        <r>  0.0000  0.0005  0.9748 </r>
       </set>
       <set comment="band 6">
        <r>  0.0632  0.5777  0.0711 </r>
       </set>
       <set comment="band 7">
        <r>  0.4336  0.0898  0.3549 </r>
       </set>
       <set comment="band 8">
        <r>  0.0000  0.0255  0.0034 </r>
       </set>
       <set comment="band 9">
        <r>  0.0000  0.5056  0.0096 </r>
       </set>
       <set comment="band 10">
        <r>  0.0000  0.5056  0.0096 </r>
       </set>
       <set comment="band 11">
        <r>  0.0000  0.0007  0.5830 </r>
       </set>
       <set comment="band 12">
        <r>  0.0000  0.0007  0.5830 </r>
       </set>
      </set>
      <set comment="kpoint 110">
       <set comment="band 1">
        <r>  0.2060  0.0151  0.6670 </r>
       </set>
       <set comment="band 2">
        <r>  0.0000  0.0063  0.9285 </r>
       </set>
       <set comment="band 3">
        <r>  0.0000  0.0024  0.9437 </r>
       </set>
       <set comment="band 4">
        <r>  0.0013  0.2327  0.6316 </r>
       </set>
       <set comment="band 5">
        <r>  0.0000  0.0005  0.9736 </r>
       </set>
       <set comment="band 6">
        <r>  0.0161  0.4153  0.3722 </r>
       </set>
       <set comment="band 7">
        <r>  0.4950  0.0251  0.3765 </r>
       </set>
       <set comment="band 8">
        <r>  0.0015  0.0599  0.0755 </r>
       </set>
       <set comment="band 9">
        <r>  0.0248  0.4522  0.0620 </r>
       </set>
       <set comment="band 10">
        <r>  0.0000  0.5058  0.0512 </r>
       </set>
       <set comment="band 11">
        <r>  0.0103  0.0057  0.4590 </r>
       </set>
       <set comment="band 12">
        <r>  0.0000  0.0026  0.5275 </r>
       </set>
      </set>
     </set>
    </set>
   </array>
  </projected>
 </calculation>
 <structure name="finalpos" >
  <crystal>
   <varray name="basis" >
    <v>       0.00000000       1.97500000       1.97500000 </v>
    <v>       1.97500000       0.00000000       1.97500000 </v>
    <v>       1.97500000       1.97500000       0.00000000 </v>
   </varray>
   <i name="volume">     15.40746875 </i>
   <varray name="rec_basis" >
    <v>      -0.25316456       0.25316456       0.25316456 </v>
    <v>       0.25316456      -0.25316456       0.25316456 </v>
    <v>       0.25316456       0.25316456      -0.25316456 </v>
   </varray>
  </crystal>
  <varray name="positions" >
   <v>       0.00000000       0.00000000       0.00000000 </v>
  </varray>
 </structure>
</modeling>
