    1    1    1    2
  0.1219450E+02  0.2511474E-09  0.2511474E-09  0.2511474E-09  0.5000000E-15
  1.000000000000000E-004
  CAR 
 bcc Fe                                  
      8     44     12
 
  0.5000000E-01  0.5000000E-01  0.5000000E-01  0.8000000E-02
    1       -2.323410     -2.155958   1.000000   1.000000
    2        2.786268      4.905180   1.000000   1.014330
    3        2.786268      4.905180   1.000000   1.014330
    4        3.252489      5.438024   1.000000  -0.016565
    5        4.003331      6.810324   1.000000  -0.000000
    6        4.003331      6.810324   1.000000  -0.000000
    7       26.804852     26.910065   0.000000   0.000000
    8       26.804852     26.910065   0.000000   0.000000
    9       29.987807     29.699158   0.000000   0.000000
   10       30.500281     31.417169   0.000000   0.000000
   11       34.306581     34.674685   0.000000   0.000000
   12       34.306581     34.674685   0.000000   0.000000
 
  0.1500000E+00  0.5000000E-01  0.5000000E-01  0.2400000E-01
    1       -1.257260     -1.059609   1.000000   1.000000
    2        2.522780      4.576423   1.000000   1.000876
    3        2.660757      4.707080   1.000000   1.010635
    4        3.854509      6.090722   1.000000  -0.000000
    5        3.908257      6.646063   1.000000  -0.000000
    6        4.069672      6.895398   1.000000  -0.000000
    7       22.589854     23.070167   0.000000   0.000000
    8       24.903359     25.159479   0.000000   0.000000
    9       27.281441     28.102572   0.000000   0.000000
   10       30.166108     30.048511   0.000000   0.000000
   11       33.897964     34.547028   0.000000   0.000000
   12       34.435549     34.722614   0.000000   0.000000
 
  0.2500000E+00  0.5000000E-01  0.5000000E-01  0.2400000E-01
    1        0.068276      0.489240   1.000000   1.000000
    2        2.227835      4.209396   1.000000   1.000000
    3        2.735725      4.490552   1.000000   1.000098
    4        3.963668      6.652519   1.000000  -0.000000
    5        4.146091      6.974139   1.000000  -0.000000
    6        4.708107      6.999686   1.010799  -0.000000
    7       18.028092     18.816207   0.000000   0.000000
    8       23.232349     23.508727   0.000000   0.000000
    9       25.004964     25.744914   0.000000   0.000000
   10       29.653640     29.798296   0.000000   0.000000
   11       33.035415     33.627004   0.000000   0.000000
   12       36.366538     36.604336   0.000000   0.000000
 
  0.3500000E+00  0.5000000E-01  0.5000000E-01  0.2400000E-01
    1        0.644738      1.748757   1.000000   1.000000
    2        2.004503      3.934324   1.000000   1.000000
    3        3.716419      4.813899   1.000000   1.032679
    4        4.093853      6.751573   1.000000  -0.000000
    5        4.198127      7.081706   1.000000  -0.000000
    6        5.774012      7.857109  -0.000007  -0.000000
    7       13.988640     15.108913   0.000000   0.000000
    8       22.092921     22.340932   0.000000   0.000000
    9       23.465957     24.135068   0.000000   0.000000
   10       29.210571     29.506627   0.000000   0.000000
   11       32.696628     33.300536   0.000000   0.000000
   12       38.654300     38.759698   0.000000   0.000000
 
  0.4500000E+00  0.5000000E-01  0.5000000E-01  0.1200000E-01
    1        0.678376      2.078815   1.000000   1.000000
    2        1.921595      3.832947   1.000000   1.000000
    3        4.106510      5.380924   1.000000  -0.029346
    4        4.220940      6.794470   1.000000  -0.000000
    5        4.418109      7.117626   1.000011  -0.000000
    6        6.738308      8.350203  -0.000000  -0.000000
    7       11.878681     13.336559   0.000000   0.000000
    8       21.689461     21.921051   0.000000   0.000000
    9       22.901781     23.535152   0.000000   0.000000
   10       29.049423     29.394478   0.000000   0.000000
   11       32.635728     33.259887   0.000000   0.000000
   12       38.612038     38.629856   0.000000   0.000000
 
 -0.5000000E-01  0.5000000E-01  0.5000000E-01  0.6000000E-02
    1       -2.706147     -2.542085   1.000000   1.000000
    2        2.897913      5.042721   1.000000   0.688978
    3        2.898048      5.042953   1.000000   0.688079
    4        2.949324      5.108930   1.000000   0.414894
    5        3.968989      6.770690   1.000000  -0.000000
    6        4.083445      6.921015   1.000000  -0.000000
    7       28.221875     28.070773   0.000000   0.000000
    8       29.182564     29.017431   0.000000   0.000000
    9       29.182565     29.017446   0.000000   0.000000
   10       32.345621     32.736862   0.000000   0.000000
   11       33.922706     34.788626   0.000000   0.000000
   12       33.922747     34.788773   0.000000   0.000000
 
  0.1500000E+00  0.1500000E+00  0.5000000E-01  0.2400000E-01
    1       -0.044942      0.252540   1.000000   1.000000
    2        2.324856      4.294859   1.000000   1.000000
    3        2.347198      4.300444   1.000000   1.000000
    4        3.924019      6.645989   1.000000  -0.000000
    5        4.148331      6.944005   1.000000  -0.000000
    6        4.756201      7.024707   1.020208  -0.000000
    7       20.359548     20.945887   0.000000   0.000000
    8       21.136713     21.716228   0.000000   0.000000
    9       24.305741     24.982641   0.000000   0.000000
   10       31.421984     31.308534   0.000000   0.000000
   11       34.941797     35.317925   0.000000   0.000000
   12       36.351453     36.791423   0.000000   0.000000
 
  0.2500000E+00  0.1500000E+00  0.5000000E-01  0.4800000E-01
    1        0.961240      1.737465   1.000000   1.000000
    2        2.065090      3.954749   1.000000   1.000000
    3        2.561464      4.170311   1.000000   1.000000
    4        4.012321      6.716950   1.000000  -0.000000
    5        4.241983      7.084431   1.000000  -0.000000
    6        6.049045      8.107750  -0.000000  -0.000000
    7       16.304021     17.167377   0.000000   0.000000
    8       19.368482     19.981207   0.000000   0.000000
    9       22.651545     23.243725   0.000000   0.000000
   10       31.551709     31.611946   0.000000   0.000000
   11       35.733394     36.060896   0.000000   0.000000
   12       37.009256     37.418669   0.000000   0.000000
 
  0.3500000E+00  0.1500000E+00  0.5000000E-01  0.4800000E-01
    1        1.081973      2.473122   1.000000   1.000000
    2        1.942117      3.798140   1.000000   1.000000
    3        3.244871      4.548870   1.000000   1.000454
    4        4.114247      6.822253   1.000000  -0.000000
    5        4.328022      7.136861   1.000001  -0.000000
    6        7.792273      9.332331  -0.000000  -0.000000
    7       12.756290     13.977842   0.000000   0.000000
    8       18.570533     19.176074   0.000000   0.000000
    9       21.807301     22.359616   0.000000   0.000000
   10       31.378460     31.542628   0.000000   0.000000
   11       36.314996     36.764076   0.000000   0.000000
   12       37.414022     37.556569   0.000000   0.000000
 
 -0.1500000E+00  0.1500000E+00  0.5000000E-01  0.2400000E-01
    1       -1.953356     -1.779374   1.000000   1.000000
    2        2.736369      4.839371   1.000000   1.035386
    3        2.874365      4.980678   1.000000   0.891335
    4        3.323901      5.521920   1.000000  -0.004508
    5        3.792876      6.521320   1.000000  -0.000000
    6        4.140961      6.988046   1.000000  -0.000000
    7       24.865164     25.154053   0.000000   0.000000
    8       27.513077     27.583397   0.000000   0.000000
    9       28.144921     28.364956   0.000000   0.000000
   10       31.573411     31.968553   0.000000   0.000000
   11       31.674988     32.360864   0.000000   0.000000
   12       32.671606     33.199278   0.000000   0.000000
 
  0.2500000E+00  0.2500000E+00  0.5000000E-01  0.2400000E-01
    1        1.484140      2.830206   1.000000   1.000000
    2        2.002009      3.734057   1.000000   1.000000
    3        2.541309      4.051814   1.000000   1.000000
    4        4.104358      6.820345   1.000000  -0.000000
    5        4.314296      7.116426   1.000000  -0.000000
    6        8.112045      9.740054  -0.000000  -0.000000
    7       14.772742     15.698936   0.000000   0.000000
    8       15.635612     16.454370   0.000000   0.000000
    9       21.615661     22.191807   0.000000   0.000000
   10       32.879736     32.921318   0.000000   0.000000
   11       35.554369     35.749177   0.000000   0.000000
   12       41.224403     41.502779   0.000000   0.000000
 
  0.3500000E+00  0.2500000E+00  0.5000000E-01  0.2400000E-01
    1        1.533105      3.132490   1.000000   1.000000
    2        2.039339      3.742840   1.000000   1.000000
    3        2.607449      4.082011   1.000000   1.000000
    4        4.188632      6.919811   1.000000  -0.000000
    5        4.318732      7.085096   1.000000  -0.000000
    6       10.186830     11.387168  -0.000000   0.000000
    7       12.256629     13.441452   0.000000   0.000000
    8       14.957230     15.804944   0.000000   0.000000
    9       21.287762     21.868792   0.000000   0.000000
   10       33.367803     33.449240   0.000000   0.000000
   11       35.623028     35.669402   0.000000   0.000000
   12       40.806608     41.336080   0.000000   0.000000
 
 -0.2500000E+00  0.2500000E+00  0.5000000E-01  0.2400000E-01
    1       -0.660603     -0.398887   1.000000   1.000000
    2        2.453607      4.490413   1.000000   1.000098
    3        2.790879      4.749966   1.000000   1.018824
    4        3.787853      6.271837   1.000000  -0.000000
    5        3.990250      6.427698   1.000000  -0.000000
    6        4.209975      7.056771   1.000000  -0.000000
    7       20.252913     20.912381   0.000000   0.000000
    8       25.411754     25.530477   0.000000   0.000000
    9       26.537116     27.120410   0.000000   0.000000
   10       29.775945     30.284207   0.000000   0.000000
   11       31.365032     31.911490   0.000000   0.000000
   12       33.521387     33.789492   0.000000   0.000000
 
 -0.1500000E+00  0.2500000E+00  0.5000000E-01  0.2400000E-01
    1       -0.931141     -0.713607   1.000000   1.000000
    2        2.674237      4.719157   1.000000   1.012665
    3        2.681004      4.757070   1.000000   1.020404
    4        3.620383      6.062659   1.000000  -0.000000
    5        3.825386      6.244274   1.000000  -0.000000
    6        4.273776      7.121518   1.000000  -0.000000
    7       22.492613     22.958232   0.000000   0.000000
    8       23.557387     24.086757   0.000000   0.000000
    9       28.268812     28.447148   0.000000   0.000000
   10       28.860686     29.455588   0.000000   0.000000
   11       31.553600     31.931730   0.000000   0.000000
   12       34.698119     35.083842   0.000000   0.000000
 
 -0.3500000E+00  0.3500000E+00  0.5000000E-01  0.2400000E-01
    1        0.392568      1.137049   1.000000   1.000000
    2        2.183079      4.159264   1.000000   1.000000
    3        3.225789      4.690576   1.000000   1.008239
    4        4.005614      6.572013   1.000000  -0.000000
    5        4.435953      7.121890   1.000020  -0.000000
    6        4.732005      7.154633   1.015074  -0.000000
    7       15.849419     16.808061   0.000000   0.000000
    8       23.783728     23.885855   0.000000   0.000000
    9       24.808686     25.472280   0.000000   0.000000
   10       28.841751     29.332342   0.000000   0.000000
   11       31.261168     31.833650   0.000000   0.000000
   12       35.318571     35.570054   0.000000   0.000000
 
 -0.2500000E+00  0.3500000E+00  0.5000000E-01  0.4800000E-01
    1        0.322370      0.784636   1.000000   1.000000
    2        2.358574      4.352632   1.000000   1.000001
    3        2.645716      4.525050   1.000000   1.000249
    4        3.733444      6.276649   1.000000  -0.000000
    5        4.327814      6.878095   1.000001  -0.000000
    6        4.819906      7.304912   1.033605  -0.000000
    7       18.295825     19.069242   0.000000   0.000000
    8       21.374883     21.935101   0.000000   0.000000
    9       26.377135     26.790973   0.000000   0.000000
   10       28.773151     29.139729   0.000000   0.000000
   11       32.064311     32.463142   0.000000   0.000000
   12       35.249394     35.659457   0.000000   0.000000
 
 -0.4500000E+00  0.4500000E+00  0.5000000E-01  0.2400000E-01
    1        0.603739      1.934019   1.000000   1.000000
    2        2.020434      3.962024   1.000000   1.000000
    3        3.802053      5.283284   1.000000  -0.022082
    4        4.061872      6.685583   1.000000  -0.000000
    5        5.233267      7.397111   0.032412  -0.000000
    6        5.693435      7.710142  -0.000082  -0.000000
    7       12.470295     13.823865   0.000000   0.000000
    8       22.902535     22.979282   0.000000   0.000000
    9       23.701857     24.322601   0.000000   0.000000
   10       28.481427     29.011242   0.000000   0.000000
   11       31.346098     31.970138   0.000000   0.000000
   12       36.650535     36.741225   0.000000   0.000000
 
 -0.3500000E+00  0.4500000E+00  0.5000000E-01  0.4800000E-01
    1        0.866255      2.017589   1.000000   1.000000
    2        2.178820      4.112816   1.000000   1.000000
    3        2.981979      4.538735   1.000000   1.000353
    4        3.944187      6.496803   1.000000  -0.000000
    5        4.670731      7.240601   1.005916  -0.000000
    6        6.195345      8.141551  -0.000000  -0.000000
    7       14.204427     15.284562   0.000000   0.000000
    8       20.169239     20.732110   0.000000   0.000000
    9       24.852942     25.214766   0.000000   0.000000
   10       28.917299     29.372511   0.000000   0.000000
   11       33.198468     33.511849   0.000000   0.000000
   12       35.041871     35.462158   0.000000   0.000000
 
 -0.2500000E+00  0.4500000E+00  0.5000000E-01  0.2400000E-01
    1        1.187583      2.121690   1.000000   1.000000
    2        2.055436      3.954016   1.000000   1.000000
    3        2.643223      4.427620   1.000000   1.000015
    4        3.845532      6.370042   1.000000  -0.000000
    5        4.465628      7.120791   1.000048  -0.000000
    6        6.405819      8.384087  -0.000000  -0.000000
    7       16.547086     17.413788   0.000000   0.000000
    8       17.214641     17.966354   0.000000   0.000000
    9       25.930647     26.411036   0.000000   0.000000
   10       28.649455     28.862355   0.000000   0.000000
   11       32.009296     32.390346   0.000000   0.000000
   12       39.405912     39.756830   0.000000   0.000000
 
 -0.4500000E+00 -0.4500000E+00  0.5000000E-01  0.2400000E-01
    1        0.885608      2.346720   1.000000   1.000000
    2        2.119724      4.048388   1.000000   1.000000
    3        3.204715      4.770783   1.000000   1.023547
    4        3.969287      6.563800   1.000000  -0.000000
    5        4.940283      7.417640   0.973717  -0.000000
    6        7.505238      8.904628  -0.000000  -0.000000
    7       11.946183     13.357119   0.000000   0.000000
    8       19.733256     20.287530   0.000000   0.000000
    9       24.317926     24.651268   0.000000   0.000000
   10       28.938993     29.438281   0.000000   0.000000
   11       34.359127     34.531389   0.000000   0.000000
   12       34.446419     34.898953   0.000000   0.000000
 
 -0.3500000E+00 -0.4500000E+00  0.5000000E-01  0.4800000E-01
    1        1.409380      2.910179   1.000000   1.000000
    2        2.084355      3.894020   1.000000   1.000000
    3        2.573698      4.250480   1.000000   1.000000
    4        4.044238      6.590897   1.000000  -0.000000
    5        4.598741      7.161297   1.001445  -0.000000
    6        8.667356     10.107316  -0.000000  -0.000000
    7       13.062193     14.191867   0.000000   0.000000
    8       16.128477     16.910692   0.000000   0.000000
    9       25.282581     25.745443   0.000000   0.000000
   10       29.261916     29.539165   0.000000   0.000000
   11       32.265233     32.449868   0.000000   0.000000
   12       38.280422     39.019432   0.000000   0.000000
 
 -0.3500000E+00 -0.3500000E+00  0.5000000E-01  0.8000000E-02
    1        1.826597      3.573242   1.000000   1.000000
    2        2.107769      3.790885   1.000000   1.000000
    3        2.107816      3.790937   1.000000   1.000000
    4        4.352245      6.901239   1.000001  -0.000000
    5        4.352370      6.901431   1.000001  -0.000000
    6       11.527510     12.664006   0.000000   0.000000
    7       11.527558     12.664106   0.000000   0.000000
    8       13.871654     14.853045   0.000000   0.000000
    9       25.368777     25.905923   0.000000   0.000000
   10       30.687222     30.845212   0.000000   0.000000
   11       30.687259     30.845379   0.000000   0.000000
   12       37.710576     38.655345   0.000000   0.000000
 
  0.1500000E+00  0.1500000E+00  0.1500000E+00  0.8000000E-02
    1        1.143782      1.641221   1.000000   1.000000
    2        2.061175      3.927924   1.000000   1.000000
    3        2.061175      3.927924   1.000000   1.000000
    4        4.120118      6.935673   1.000000  -0.000000
    5        4.120118      6.935673   1.000000  -0.000000
    6        6.058359      8.141545  -0.000000  -0.000000
    7       18.730939     19.373866   0.000000   0.000000
    8       18.730939     19.373866   0.000000   0.000000
    9       20.072055     20.842257   0.000000   0.000000
   10       34.261191     33.979917   0.000000   0.000000
   11       37.800904     38.063865   0.000000   0.000000
   12       37.800904     38.063865   0.000000   0.000000
 
  0.2500000E+00  0.1500000E+00  0.1500000E+00  0.2400000E-01
    1        1.574855      2.797691   1.000000   1.000000
    2        1.915567      3.710309   1.000000   1.000000
    3        2.470202      3.893461   1.000000   1.000000
    4        4.168851      6.972873   1.000000  -0.000000
    5        4.215151      7.094696   1.000000  -0.000000
    6        7.916479      9.599541  -0.000000  -0.000000
    7       14.894083     15.805541   0.000000   0.000000
    8       17.717761     18.379534   0.000000   0.000000
    9       18.499391     19.206316   0.000000   0.000000
   10       35.189549     35.083982   0.000000   0.000000
   11       38.664982     38.960568   0.000000   0.000000
   12       40.043113     40.109009   0.000000   0.000000
 
  0.3500000E+00  0.1500000E+00  0.1500000E+00  0.1200000E-01
    1        1.499101      2.994437   1.000000   1.000000
    2        1.871383      3.639959   1.000000   1.000000
    3        2.882949      4.227634   1.000000   1.000000
    4        4.203135      7.004147   1.000000  -0.000000
    5        4.240488      7.143287   1.000000  -0.000000
    6        9.702082     10.918175  -0.000000   0.000000
    7       12.298865     13.530617   0.000000   0.000000
    8       17.374004     18.039109   0.000000   0.000000
    9       18.054033     18.744216   0.000000   0.000000
   10       35.177609     35.152358   0.000000   0.000000
   11       39.152938     39.613591   0.000000   0.000000
   12       40.186965     40.223378   0.000000   0.000000
 
 -0.1500000E+00  0.1500000E+00  0.1500000E+00  0.6000000E-02
    1       -1.247760     -1.052413   1.000000   1.000000
    2        2.963019      5.060482   1.000000   0.618105
    3        2.963135      5.060680   1.000000   0.617292
    4        3.333225      5.541992   1.000000  -0.003082
    5        3.360780      5.965262   1.000000  -0.000000
    6        4.331458      7.190209   1.000001  -0.000000
    7       24.543615     24.727140   0.000000   0.000000
    8       25.872013     26.401832   0.000000   0.000000
    9       25.872059     26.401861   0.000000   0.000000
   10       27.503632     27.938152   0.000000   0.000000
   11       34.100365     34.435094   0.000000   0.000000
   12       34.100397     34.435097   0.000000   0.000000
 
  0.2500000E+00  0.2500000E+00  0.1500000E+00  0.2400000E-01
    1        1.765041      3.375926   1.000000   1.000000
    2        2.045628      3.659216   1.000000   1.000000
    3        2.382392      3.815449   1.000000   1.000000
    4        4.225101      7.078927   1.000000  -0.000000
    5        4.247266      7.132124   1.000000  -0.000000
    6       10.445611     11.691364  -0.000000   0.000000
    7       13.649796     14.603911   0.000000   0.000000
    8       14.675750     15.545245   0.000000   0.000000
    9       17.472260     18.166081   0.000000   0.000000
   10       37.676591     37.583811   0.000000   0.000000
   11       39.351789     39.369360   0.000000   0.000000
   12       42.676830     42.786046   0.000000   0.000000
 
 -0.2500000E+00  0.2500000E+00  0.1500000E+00  0.2400000E-01
    1       -0.072923      0.246930   1.000000   1.000000
    2        2.701876      4.842409   1.000000   1.035451
    3        2.826744      4.888780   1.000000   1.025087
    4        3.380450      5.751296   1.000000  -0.000015
    5        3.912007      6.183217   1.000000  -0.000000
    6        4.587372      7.350054   1.001124  -0.000000
    7       20.812201     21.454903   0.000000   0.000000
    8       23.730252     24.380850   0.000000   0.000000
    9       24.131278     24.470239   0.000000   0.000000
   10       27.502475     27.946265   0.000000   0.000000
   11       33.497776     33.934691   0.000000   0.000000
   12       34.771340     35.117538   0.000000   0.000000
 
 -0.3500000E+00  0.3500000E+00  0.1500000E+00  0.2400000E-01
    1        0.845691      1.676324   1.000000   1.000000
    2        2.469984      4.373609   1.000000   1.000003
    3        2.603832      4.618665   1.000000   1.002203
    4        3.723812      6.093849   1.000000  -0.000000
    5        4.663730      7.041747   1.005232  -0.000000
    6        5.434709      7.708011  -0.017258  -0.000000
    7       16.362959     17.267982   0.000000   0.000000
    8       21.993385     22.652474   0.000000   0.000000
    9       22.943552     23.288608   0.000000   0.000000
   10       29.061942     29.442756   0.000000   0.000000
   11       32.436136     32.921209   0.000000   0.000000
   12       34.605918     35.028670   0.000000   0.000000
 
 -0.2500000E+00  0.3500000E+00  0.1500000E+00  0.2400000E-01
    1        0.885689      1.544015   1.000000   1.000000
    2        2.228119      4.341339   1.000000   1.000001
    3        2.947220      4.956815   1.000000   0.944907
    4        3.507356      5.794951   1.000000  -0.000004
    5        4.373618      6.766670   1.000003  -0.000000
    6        5.415892      7.742252  -0.021413  -0.000000
    7       18.868071     19.632622   0.000000   0.000000
    8       19.424414     20.111097   0.000000   0.000000
    9       24.969164     25.373301   0.000000   0.000000
   10       26.247229     26.701601   0.000000   0.000000
   11       33.031337     33.489538   0.000000   0.000000
   12       38.101983     38.440482   0.000000   0.000000
 
 -0.4500000E+00  0.4500000E+00  0.1500000E+00  0.2400000E-01
    1        0.985695      2.438927   1.000000   1.000000
    2        2.464127      4.342980   1.000000   1.000001
    3        2.651897      4.449692   1.000000   1.000030
    4        3.788569      6.245348   1.000000  -0.000000
    5        5.183769      7.653313   0.143750  -0.000000
    6        7.311701      8.754714  -0.000000  -0.000000
    7       12.747747     13.994216   0.000000   0.000000
    8       20.972583     21.594016   0.000000   0.000000
    9       22.296865     22.644745   0.000000   0.000000
   10       31.102219     31.360989   0.000000   0.000000
   11       31.894799     32.399271   0.000000   0.000000
   12       33.572298     34.071140   0.000000   0.000000
 
 -0.3500000E+00  0.4500000E+00  0.1500000E+00  0.4800000E-01
    1        1.319712      2.624658   1.000000   1.000000
    2        2.016991      3.900164   1.000000   1.000000
    3        2.772462      4.762206   1.000000   1.021571
    4        3.811281      6.153029   1.000000  -0.000000
    5        4.805114      7.246470   1.031098  -0.000000
    6        7.340725      8.998926  -0.000000  -0.000000
    7       14.880930     15.846463   0.000000   0.000000
    8       17.953821     18.668055   0.000000   0.000000
    9       24.393490     24.803762   0.000000   0.000000
   10       27.726157     28.101181   0.000000   0.000000
   11       32.036503     32.498486   0.000000   0.000000
   12       36.389086     37.096461   0.000000   0.000000
 
 -0.4500000E+00 -0.4500000E+00  0.1500000E+00  0.2400000E-01
    1        1.288531      2.950075   1.000000   1.000000
    2        2.168285      3.893683   1.000000   1.000000
    3        2.605488      4.583698   1.000000   1.001035
    4        3.893748      6.262372   1.000000  -0.000000
    5        5.039659      7.492357   0.700763  -0.000000
    6        9.262530     10.437478  -0.000000  -0.000000
    7       12.225963     13.480830   0.000000   0.000000
    8       17.492242     18.190153   0.000000   0.000000
    9       24.042484     24.449871   0.000000   0.000000
   10       29.542436     29.747029   0.000000   0.000000
   11       30.774228     31.339366   0.000000   0.000000
   12       35.053246     35.846232   0.000000   0.000000
 
 -0.3500000E+00 -0.4500000E+00  0.1500000E+00  0.2400000E-01
    1        1.692262      3.374414   1.000000   1.000000
    2        1.728262      3.558086   1.000000   1.000000
    3        2.533780      4.445736   1.000000   1.000027
    4        4.259974      6.625240   1.000000  -0.000000
    5        4.726438      7.151003   1.014000  -0.000000
    6       10.074291     11.307784  -0.000000   0.000000
    7       13.472740     14.481660   0.000000   0.000000
    8       14.605768     15.467521   0.000000   0.000000
    9       26.402276     26.731340   0.000000   0.000000
   10       27.253882     27.622486   0.000000   0.000000
   11       30.035687     30.549125   0.000000   0.000000
   12       34.963472     35.793674   0.000000   0.000000
 
  0.2500000E+00  0.2500000E+00  0.2500000E+00  0.2000000E-02
    1        2.080830      3.648913   1.000000   1.000000
    2        2.080830      3.648913   1.000000   1.000000
    3        2.080973      3.649082   1.000000   1.000000
    4        4.244213      7.151645   1.000000  -0.000000
    5        4.244213      7.151645   1.000000  -0.000000
    6       13.263938     14.225729   0.000000   0.000000
    7       13.263938     14.225729   0.000000   0.000000
    8       13.264085     14.226052   0.000000   0.000000
    9       15.111887     15.906358   0.000000   0.000000
   10       42.787907     42.526354   0.000000   0.000000
   11       42.788039     42.526367   0.000000   0.000000
   12       42.788836     42.526446   0.000000   0.000000
 
 -0.2500000E+00  0.2500000E+00  0.2500000E+00  0.6000000E-02
    1        0.753472      1.326206   1.000000   1.000000
    2        2.361201      4.671507   1.000000   1.005996
    3        3.311397      5.392922   1.000000  -0.026702
    4        3.311523      5.393131   1.000000  -0.026654
    5        3.968718      6.262628   1.000000  -0.000000
    6        5.225106      7.674431   0.046562  -0.000000
    7       21.328009     22.005304   0.000000   0.000000
    8       21.328032     22.005345   0.000000   0.000000
    9       22.074174     22.600850   0.000000   0.000000
   10       24.092593     24.562434   0.000000   0.000000
   11       37.643037     37.967151   0.000000   0.000000
   12       37.643050     37.967217   0.000000   0.000000
 
 -0.3500000E+00  0.3500000E+00  0.2500000E+00  0.2400000E-01
    1        1.251384      2.379683   1.000000   1.000000
    2        1.854477      3.961052   1.000000   1.000000
    3        3.344202      5.433552   1.000000  -0.017504
    4        3.652619      5.827503   1.000000  -0.000001
    5        4.569828      6.935835   1.000752  -0.000000
    6        6.680378      8.472561  -0.000000  -0.000000
    7       17.300810     18.091049   0.000000   0.000000
    8       19.442771     20.089113   0.000000   0.000000
    9       21.958050     22.542494   0.000000   0.000000
   10       24.644380     25.138577   0.000000   0.000000
   11       35.210883     35.902202   0.000000   0.000000
   12       36.570672     37.026303   0.000000   0.000000
 
 -0.4500000E+00  0.4500000E+00  0.2500000E+00  0.2400000E-01
    1        1.259439      2.958583   1.000000   1.000000
    2        1.714115      3.547243   1.000000   1.000000
    3        3.269150      5.348977   1.000000  -0.034644
    4        3.801749      6.017964   1.000000  -0.000000
    5        5.105760      7.563532   0.428113  -0.000000
    6        9.126141     10.317266  -0.000000  -0.000000
    7       13.434723     14.453350   0.000000   0.000000
    8       18.351914     18.939735   0.000000   0.000000
    9       21.628957     22.245933   0.000000   0.000000
   10       26.647506     27.017842   0.000000   0.000000
   11       31.786131     32.621086   0.000000   0.000000
   12       35.934952     36.394044   0.000000   0.000000
 
 -0.3500000E+00  0.4500000E+00  0.2500000E+00  0.2400000E-01
    1        1.345058      2.928404   1.000000   1.000000
    2        1.445725      3.448511   1.000000   1.000000
    3        3.412053      5.487966   1.000000  -0.008090
    4        4.133931      6.363821   1.000000  -0.000000
    5        4.854906      7.263228   1.034941  -0.000000
    6        8.924319     10.174056  -0.000000  -0.000000
    7       15.762134     16.570939   0.000000   0.000000
    8       16.197368     16.892822   0.000000   0.000000
    9       22.806177     23.370586   0.000000   0.000000
   10       24.261751     24.786545   0.000000   0.000000
   11       31.325401     32.125515   0.000000   0.000000
   12       36.723465     37.196646   0.000000   0.000000
 
 -0.4500000E+00 -0.4500000E+00  0.2500000E+00  0.2400000E-01
    1        1.257000      3.138455   1.000000   1.000000
    2        1.393244      3.222386   1.000000   1.000000