 running on    4 total cores
 distrk:  each k-point on    4 cores,    1 groups
 distr:  one band on    1 cores,    4 groups
 using from now: INCAR     
 vasp.5.4.4.18Apr17-6-g9f103f2a35 (build May 18 2018 14:42:58) complex          
  
 POSCAR found type information on POSCAR  Fe
 POSCAR found :  1 types and       1 ions
 scaLAPACK will be used
 LDA part: xc-table for Pade appr. of Perdew
 POSCAR, INCAR and KPOINTS ok, starting setup
 FFT: planning ...
 WAVECAR not read
 entering main loop
       N       E                     dE             d eps       ncg     rms          rms(c)
DAV:   1     0.110318765717E+02    0.11032E+02   -0.26070E+03  2400   0.457E+02
DAV:   2    -0.879019566491E+01   -0.19822E+02   -0.18215E+02  2232   0.929E+01
DAV:   3    -0.912997969842E+01   -0.33978E+00   -0.33921E+00  2496   0.141E+01
DAV:   4    -0.913090452672E+01   -0.92483E-03   -0.92479E-03  2312   0.688E-01
DAV:   5    -0.913090929716E+01   -0.47704E-05   -0.47710E-05  2048   0.515E-02    0.105E+01
DAV:   6    -0.830923972937E+01    0.82167E+00   -0.11651E+01  2368   0.381E+01    0.609E+00
DAV:   7    -0.822006978601E+01    0.89170E-01   -0.86312E-01  2416   0.982E+00    0.323E+00
DAV:   8    -0.821668546668E+01    0.33843E-02   -0.68291E-03  2368   0.568E-01    0.137E+00
DAV:   9    -0.821081614299E+01    0.58693E-02   -0.54112E-03  2752   0.361E-01    0.309E-01
DAV:  10    -0.821088336974E+01   -0.67227E-04   -0.11242E-03  2280   0.169E-01    0.922E-02
DAV:  11    -0.821091240274E+01   -0.29033E-04   -0.55742E-05  1252   0.745E-02
   1 F= -.82109124E+01 E0= -.82120596E+01  d E =0.344151E-02  mag=     2.3769
 writing wavefunctions
