PROCAR new format
# of k-points:   44         # of bands:   12         # of ions:    1

 k-point     1 :    0.05000000 0.05000000 0.05000000     weight = 0.00800000

band     1 # energy   -2.32341047 # occ.  1.00000000
 
ion      s      p      d    tot
    1  0.538  0.031  0.003  0.571
 
band     2 # energy    2.78626838 # occ.  1.00000000
 
ion      s      p      d    tot
    1  0.000  0.001  0.957  0.958
 
band     3 # energy    2.78626838 # occ.  1.00000000
 
ion      s      p      d    tot
    1  0.000  0.001  0.957  0.958
 
band     4 # energy    3.25248862 # occ.  1.00000000
 
ion      s      p      d    tot
    1  0.001  0.005  0.960  0.965
 
band     5 # energy    4.00333098 # occ.  1.00000000
 
ion      s      p      d    tot
    1  0.000  0.000  0.967  0.967
 
band     6 # energy    4.00333098 # occ.  1.00000000
 
ion      s      p      d    tot
    1  0.000  0.000  0.967  0.967
 
band     7 # energy   26.80485175 # occ.  0.00000000
 
ion      s      p      d    tot
    1  0.000  0.074  0.207  0.281
 
band     8 # energy   26.80485175 # occ.  0.00000000
 
ion      s      p      d    tot
    1  0.000  0.074  0.207  0.281
 
band     9 # energy   29.98780706 # occ.  0.00000000
 
ion      s      p      d    tot
    1  0.000  0.000  0.000  0.000
 
band    10 # energy   30.50028088 # occ.  0.00000000
 
ion      s      p      d    tot
    1  0.055  0.483  0.227  0.765
 
band    11 # energy   34.30658058 # occ.  0.00000000
 
ion      s      p      d    tot
    1  0.000  0.380  0.027  0.406
 
band    12 # energy   34.30658101 # occ.  0.00000000
 
ion      s      p      d    tot
    1  0.000  0.380  0.026  0.406
 

 k-point     2 :    0.15000000 0.05000000 0.05000000     weight = 0.02400000

band     1 # energy   -1.25725950 # occ.  1.00000000
 
ion      s      p      d    tot
    1  0.471  0.081  0.029  0.581
 
band     2 # energy    2.52277990 # occ.  1.00000000
 
ion      s      p      d    tot
    1  0.000  0.002  0.946  0.948
 
band     3 # energy    2.66075676 # occ.  1.00000000
 
ion      s      p      d    tot
    1  0.003  0.012  0.920  0.935
 
band     4 # energy    3.85450900 # occ.  1.00000000
 
ion      s      p      d    tot
    1  0.005  0.013  0.945  0.962
 
band     5 # energy    3.90825678 # occ.  1.00000000
 
ion      s      p      d    tot
    1  0.000  0.001  0.966  0.967
 
band     6 # energy    4.06967182 # occ.  1.00000000
 
ion      s      p      d    tot
    1  0.000  0.000  0.971  0.971
 
band     7 # energy   22.58985443 # occ.  0.00000000
 
ion      s      p      d    tot
    1  0.031  0.191  0.269  0.491
 
band     8 # energy   24.90335870 # occ.  0.00000000
 
ion      s      p      d    tot
    1  0.000  0.151  0.221  0.372
 
band     9 # energy   27.28144104 # occ.  0.00000000
 
ion      s      p      d    tot
    1  0.094  0.461  0.161  0.716
 
band    10 # energy   30.16610776 # occ.  0.00000000
 
ion      s      p      d    tot
    1  0.000  0.004  0.130  0.135
 
band    11 # energy   33.89796395 # occ.  0.00000000
 
ion      s      p      d    tot
    1  0.028  0.321  0.232  0.581
 
band    12 # energy   34.43554943 # occ.  0.00000000
 
ion      s      p      d    tot
    1  0.000  0.261  0.091  0.352
 

 k-point     3 :    0.25000000 0.05000000 0.05000000     weight = 0.02400000

band     1 # energy    0.06827625 # occ.  1.00000000
 
ion      s      p      d    tot
    1  0.325  0.101  0.223  0.649
 
band     2 # energy    2.22783484 # occ.  1.00000000
 
ion      s      p      d    tot
    1  0.000  0.003  0.936  0.939
 
band     3 # energy    2.73572521 # occ.  1.00000000
 
ion      s      p      d    tot
    1  0.040  0.081  0.734  0.855
 
band     4 # energy    3.96366800 # occ.  1.00000000
 
ion      s      p      d    tot
    1  0.001  0.001  0.970  0.972
 
band     5 # energy    4.14609104 # occ.  1.00000000
 
ion      s      p      d    tot
    1  0.000  0.000  0.976  0.976
 
band     6 # energy    4.70810674 # occ.  1.01079879
 
ion      s      p      d    tot
    1  0.016  0.032  0.902  0.950
 
band     7 # energy   18.02809225 # occ.  0.00000000
 
ion      s      p      d    tot
    1  0.118  0.228  0.272  0.618
 
band     8 # energy   23.23234875 # occ.  0.00000000
 
ion      s      p      d    tot
    1  0.000  0.204  0.182  0.386
 
band     9 # energy   25.00496387 # occ.  0.00000000
 
ion      s      p      d    tot
    1  0.095  0.479  0.113  0.686
 
band    10 # energy   29.65364000 # occ.  0.00000000
 
ion      s      p      d    tot
    1  0.000  0.013  0.310  0.323
 
band    11 # energy   33.03541526 # occ.  0.00000000
 
ion      s      p      d    tot
    1  0.083  0.219  0.254  0.555
 
band    12 # energy   36.36653845 # occ.  0.00000000
 
ion      s      p      d    tot
    1  0.000  0.234  0.079  0.313
 

 k-point     4 :    0.35000000 0.05000000 0.05000000     weight = 0.02400000

band     1 # energy    0.64473798 # occ.  1.00000000
 
ion      s      p      d    tot
    1  0.143  0.030  0.616  0.790
 
band     2 # energy    2.00450278 # occ.  1.00000000
 
ion      s      p      d    tot
    1  0.000  0.003  0.930  0.933
 
band     3 # energy    3.71641874 # occ.  1.00000000
 
ion      s      p      d    tot
    1  0.060  0.191  0.523  0.774
 
band     4 # energy    4.09385266 # occ.  1.00000000
 
ion      s      p      d    tot
    1  0.000  0.020  0.944  0.964
 
band     5 # energy    4.19812744 # occ.  1.00000000
 
ion      s      p      d    tot
    1  0.000  0.000  0.980  0.980
 
band     6 # energy    5.77401249 # occ. -0.00000706
 
ion      s      p      d    tot
    1  0.041  0.131  0.689  0.861
 
band     7 # energy   13.98863973 # occ.  0.00000000
 
ion      s      p      d    tot
    1  0.249  0.150  0.309  0.707
 
band     8 # energy   22.09292104 # occ.  0.00000000
 
ion      s      p      d    tot
    1  0.000  0.231  0.146  0.377
 
band     9 # energy   23.46595744 # occ.  0.00000000
 
ion      s      p      d    tot
    1  0.088  0.519  0.059  0.666
 
band    10 # energy   29.21057089 # occ.  0.00000000
 
ion      s      p      d    tot
    1  0.000  0.014  0.411  0.425
 
band    11 # energy   32.69662780 # occ.  0.00000000
 
ion      s      p      d    tot
    1  0.138  0.131  0.294  0.563
 
band    12 # energy   38.65429953 # occ.  0.00000000
 
ion      s      p      d    tot
    1  0.029  0.038  0.082  0.150
 

 k-point     5 :    0.45000000 0.05000000 0.05000000     weight = 0.01200000

band     1 # energy    0.67837618 # occ.  1.00000000
 
ion      s      p      d    tot
    1  0.099  0.007  0.721  0.827
 
band     2 # energy    1.92159527 # occ.  1.00000000
 
ion      s      p      d    tot
    1  0.000  0.003  0.927  0.931
 
band     3 # energy    4.10651032 # occ.  1.00000000
 
ion      s      p      d    tot
    1  0.009  0.000  0.966  0.976
 
band     4 # energy    4.22094030 # occ.  1.00000001
 
ion      s      p      d    tot
    1  0.000  0.000  0.982  0.982
 
band     5 # energy    4.41810916 # occ.  1.00001134
 
ion      s      p      d    tot
    1  0.000  0.194  0.625  0.818
 
band     6 # energy    6.73830780 # occ. -0.00000000
 
ion      s      p      d    tot
    1  0.000  0.336  0.373  0.708
 
band     7 # energy   11.87868145 # occ.  0.00000000
 
ion      s      p      d    tot
    1  0.383  0.008  0.393  0.785
 
band     8 # energy   21.68946123 # occ.  0.00000000
 
ion      s      p      d    tot
    1  0.000  0.239  0.131  0.371
 
band     9 # energy   22.90178111 # occ.  0.00000000
 
ion      s      p      d    tot
    1  0.086  0.538  0.033  0.657
 
band    10 # energy   29.04942337 # occ.  0.00000000
 
ion      s      p      d    tot
    1  0.000  0.014  0.443  0.456
 
band    11 # energy   32.63572795 # occ.  0.00000000
 
ion      s      p      d    tot
    1  0.163  0.095  0.317  0.575
 
band    12 # energy   38.61203826 # occ.  0.00000000
 
ion      s      p      d    tot
    1  0.000  0.070  0.003  0.074
 

 k-point     6 :   -0.05000000 0.05000000 0.05000000     weight = 0.00600000

band     1 # energy   -2.70614666 # occ.  1.00000000
 
ion      s      p      d    tot
    1  0.559  0.011  0.000  0.569
 
band     2 # energy    2.89791283 # occ.  1.00000000
 
ion      s      p      d    tot
    1  0.000  0.001  0.962  0.963
 
band     3 # energy    2.89804757 # occ.  1.00000000
 
ion      s      p      d    tot
    1  0.000  0.001  0.962  0.963
 
band     4 # energy    2.94932360 # occ.  1.00000000
 
ion      s      p      d    tot
    1  0.000  0.000  0.965  0.965
 
band     5 # energy    3.96898924 # occ.  1.00000000
 
ion      s      p      d    tot
    1  0.000  0.000  0.965  0.965
 
band     6 # energy    4.08344522 # occ.  1.00000000
 
ion      s      p      d    tot
    1  0.000  0.000  0.970  0.970
 
band     7 # energy   28.22187476 # occ.  0.00000000
 
ion      s      p      d    tot
    1  0.000  0.000  0.102  0.102
 
band     8 # energy   29.18256383 # occ.  0.00000000
 
ion      s      p      d    tot
    1  0.000  0.014  0.089  0.103
 
band     9 # energy   29.18256527 # occ.  0.00000000
 
ion      s      p      d    tot
    1  0.000  0.014  0.089  0.103
 
band    10 # energy   32.34562094 # occ.  0.00000000
 
ion      s      p      d    tot
    1  0.013  0.296  0.150  0.459
 
band    11 # energy   33.92270623 # occ.  0.00000000
 
ion      s      p      d    tot
    1  0.000  0.465  0.236  0.701
 
band    12 # energy   33.92274743 # occ.  0.00000000
 
ion      s      p      d    tot
    1  0.000  0.465  0.236  0.701
 

 k-point     7 :    0.15000000 0.15000000 0.05000000     weight = 0.02400000

band     1 # energy   -0.04494196 # occ.  1.00000000
 
ion      s      p      d    tot
    1  0.372  0.125  0.114  0.611
 
band     2 # energy    2.32485603 # occ.  1.00000000
 
ion      s      p      d    tot
    1  0.000  0.016  0.905  0.921
 
band     3 # energy    2.34719801 # occ.  1.00000000
 
ion      s      p      d    tot
    1  0.005  0.015  0.907  0.927
 
band     4 # energy    3.92401919 # occ.  1.00000000
 
ion      s      p      d    tot
    1  0.000  0.000  0.969  0.969
 
band     5 # energy    4.14833060 # occ.  1.00000000
 
ion      s      p      d    tot
    1  0.002  0.000  0.974  0.976
 
band     6 # energy    4.75620089 # occ.  1.02020836
 
ion      s      p      d    tot
    1  0.023  0.038  0.881  0.943
 
band     7 # energy   20.35954818 # occ.  0.00000000
 
ion      s      p      d    tot
    1  0.000  0.229  0.298  0.527
 
band     8 # energy   21.13671334 # occ.  0.00000000
 
ion      s      p      d    tot
    1  0.110  0.252  0.201  0.564
 
band     9 # energy   24.30574148 # occ.  0.00000000
 
ion      s      p      d    tot
    1  0.120  0.384  0.128  0.631
 
band    10 # energy   31.42198383 # occ.  0.00000000
 
ion      s      p      d    tot
    1  0.000  0.019  0.117  0.136
 
band    11 # energy   34.94179685 # occ.  0.00000000
 
ion      s      p      d    tot
    1  0.019  0.136  0.285  0.440
 
band    12 # energy   36.35145303 # occ.  0.00000000
 
ion      s      p      d    tot
    1  0.000  0.247  0.200  0.447
 

 k-point     8 :    0.25000000 0.15000000 0.05000000     weight = 0.04800000

band     1 # energy    0.96123986 # occ.  1.00000000
 
ion      s      p      d    tot
    1  0.185  0.086  0.472  0.742
 
band     2 # energy    2.06509017 # occ.  1.00000000
 
ion      s      p      d    tot
    1  0.000  0.017  0.900  0.918
 
band     3 # energy    2.56146357 # occ.  1.00000000
 
ion      s      p      d    tot
    1  0.043  0.103  0.691  0.837
 
band     4 # energy    4.01232094 # occ.  1.00000000
 
ion      s      p      d    tot
    1  0.000  0.002  0.971  0.973
 
band     5 # energy    4.24198264 # occ.  1.00000002
 
ion      s      p      d    tot
    1  0.005  0.002  0.971  0.978
 
band     6 # energy    6.04904516 # occ. -0.00000000
 
ion      s      p      d    tot
    1  0.062  0.103  0.712  0.877
 
band     7 # energy   16.30402061 # occ.  0.00000000
 
ion      s      p      d    tot
    1  0.138  0.235  0.269  0.642
 
band     8 # energy   19.36848248 # occ.  0.00000000
 
ion      s      p      d    tot
    1  0.102  0.267  0.204  0.572
 
band     9 # energy   22.65154501 # occ.  0.00000000
 
ion      s      p      d    tot
    1  0.108  0.367  0.118  0.593
 
band    10 # energy   31.55170859 # occ.  0.00000000
 
ion      s      p      d    tot
    1  0.006  0.027  0.224  0.257
 
band    11 # energy   35.73339415 # occ.  0.00000000
 
ion      s      p      d    tot
    1  0.002  0.122  0.286  0.410
 
band    12 # energy   37.00925590 # occ.  0.00000000
 
ion      s      p      d    tot
    1  0.066  0.165  0.180  0.411
 

 k-point     9 :    0.35000000 0.15000000 0.05000000     weight = 0.04800000

band     1 # energy    1.08197287 # occ.  1.00000000
 
ion      s      p      d    tot
    1  0.081  0.030  0.721  0.832
 
band     2 # energy    1.94211671 # occ.  1.00000000
 
ion      s      p      d    tot
    1  0.000  0.017  0.902  0.918
 
band     3 # energy    3.24487121 # occ.  1.00000000
 
ion      s      p      d    tot
    1  0.011  0.154  0.660  0.825
 
band     4 # energy    4.11424719 # occ.  1.00000000
 
ion      s      p      d    tot
    1  0.004  0.002  0.970  0.976
 
band     5 # energy    4.32802164 # occ.  1.00000052
 
ion      s      p      d    tot
    1  0.003  0.014  0.956  0.973
 
band     6 # energy    7.79227273 # occ. -0.00000000
 
ion      s      p      d    tot
    1  0.044  0.266  0.437  0.747
 
band     7 # energy   12.75629026 # occ.  0.00000000
 
ion      s      p      d    tot
    1  0.294  0.111  0.325  0.730
 
band     8 # energy   18.57053292 # occ.  0.00000000
 
ion      s      p      d    tot
    1  0.107  0.284  0.184  0.575
 
band     9 # energy   21.80730134 # occ.  0.00000000
 
ion      s      p      d    tot
    1  0.101  0.373  0.105  0.579
 
band    10 # energy   31.37846010 # occ.  0.00000000
 
ion      s      p      d    tot
    1  0.013  0.022  0.292  0.327
 
band    11 # energy   36.31499600 # occ.  0.00000000
 
ion      s      p      d    tot
    1  0.044  0.150  0.287  0.481
 
band    12 # energy   37.41402178 # occ.  0.00000000
 
ion      s      p      d    tot
    1  0.027  0.063  0.128  0.218
 

 k-point    10 :   -0.15000000 0.15000000 0.05000000     weight = 0.02400000

band     1 # energy   -1.95335600 # occ.  1.00000000
 
ion      s      p      d    tot
    1  0.515  0.050  0.008  0.573
 
band     2 # energy    2.73636927 # occ.  1.00000000
 
ion      s      p      d    tot
    1  0.000  0.001  0.955  0.956
 
band     3 # energy    2.87436541 # occ.  1.00000000
 
ion      s      p      d    tot
    1  0.001  0.007  0.942  0.951
 
band     4 # energy    3.32390107 # occ.  1.00000000
 
ion      s      p      d    tot
    1  0.000  0.003  0.962  0.965
 
band     5 # energy    3.79287574 # occ.  1.00000000
 
ion      s      p      d    tot
    1  0.000  0.000  0.958  0.958
 
band     6 # energy    4.14096103 # occ.  1.00000000
 
ion      s      p      d    tot
    1  0.002  0.000  0.971  0.972
 
band     7 # energy   24.86516404 # occ.  0.00000000
 
ion      s      p      d    tot
    1  0.014  0.123  0.253  0.389
 
band     8 # energy   27.51307677 # occ.  0.00000000
 
ion      s      p      d    tot
    1  0.016  0.114  0.123  0.253
 
band     9 # energy   28.14492064 # occ.  0.00000000
 
ion      s      p      d    tot
    1  0.000  0.119  0.270  0.389
 
band    10 # energy   31.57341091 # occ.  0.00000000
 
ion      s      p      d    tot
    1  0.004  0.320  0.140  0.464
 
band    11 # energy   31.67498777 # occ.  0.00000000
 
ion      s      p      d    tot
    1  0.000  0.394  0.208  0.602
 
band    12 # energy   32.67160616 # occ.  0.00000000
 
ion      s      p      d    tot
    1  0.067  0.323  0.050  0.440
 

 k-point    11 :    0.25000000 0.25000000 0.05000000     weight = 0.02400000

band     1 # energy    1.48413994 # occ.  1.00000000
 
ion      s      p      d    tot
    1  0.068  0.036  0.749  0.853
 
band     2 # energy    2.00200936 # occ.  1.00000000
 
ion      s      p      d    tot
    1  0.000  0.056  0.821  0.877
 
band     3 # energy    2.54130910 # occ.  1.00000000
 
ion      s      p      d    tot
    1  0.024  0.117  0.696  0.837
 
band     4 # energy    4.10435758 # occ.  1.00000000
 
ion      s      p      d    tot
    1  0.000  0.003  0.973  0.976
 
band     5 # energy    4.31429618 # occ.  1.00000031
 
ion      s      p      d    tot
    1  0.006  0.005  0.966  0.978
 
band     6 # energy    8.11204512 # occ. -0.00000000
 
ion      s      p      d    tot
    1  0.090  0.205  0.481  0.776
 
band     7 # energy   14.77274178 # occ.  0.00000000
 
ion      s      p      d    tot
    1  0.000  0.322  0.315  0.637
 
band     8 # energy   15.63561175 # occ.  0.00000000
 
ion      s      p      d    tot
    1  0.374  0.145  0.153  0.671
 
band     9 # energy   21.61566146 # occ.  0.00000000
 
ion      s      p      d    tot
    1  0.104  0.342  0.138  0.584
 
band    10 # energy   32.87973568 # occ.  0.00000000
 
ion      s      p      d    tot
    1  0.000  0.048  0.185  0.232
 
band    11 # energy   35.55436915 # occ.  0.00000000
 
ion      s      p      d    tot
    1  0.022  0.058  0.231  0.312
 
band    12 # energy   41.22440275 # occ.  0.00000000
 
ion      s      p      d    tot
    1  0.000  0.174  0.165  0.339
 

 k-point    12 :    0.35000000 0.25000000 0.05000000     weight = 0.02400000

band     1 # energy    1.53310493 # occ.  1.00000000
 
ion      s      p      d    tot
    1  0.041  0.022  0.814  0.877
 
band     2 # energy    2.03933867 # occ.  1.00000000
 
ion      s      p      d    tot
    1  0.000  0.062  0.815  0.878
 
band     3 # energy    2.60744888 # occ.  1.00000000
 
ion      s      p      d    tot
    1  0.000  0.122  0.720  0.842
 
band     4 # energy    4.18863155 # occ.  1.00000000
 
ion      s      p      d    tot
    1  0.002  0.004  0.972  0.977
 
band     5 # energy    4.31873157 # occ.  1.00000037
 
ion      s      p      d    tot
    1  0.000  0.009  0.969  0.978
 
band     6 # energy   10.18683008 # occ. -0.00000000
 
ion      s      p      d    tot
    1  0.000  0.348  0.341  0.689
 
band     7 # energy   12.25662937 # occ.  0.00000000
 
ion      s      p      d    tot
    1  0.210  0.178  0.326  0.713
 
band     8 # energy   14.95722985 # occ.  0.00000000
 
ion      s      p      d    tot
    1  0.316  0.166  0.185  0.667
 
band     9 # energy   21.28776223 # occ.  0.00000000
 
ion      s      p      d    tot
    1  0.103  0.339  0.144  0.586
 
band    10 # energy   33.36780334 # occ.  0.00000000
 
ion      s      p      d    tot
    1  0.006  0.046  0.203  0.255
 
band    11 # energy   35.62302760 # occ.  0.00000000
 
ion      s      p      d    tot
    1  0.000  0.053  0.153  0.206
 
band    12 # energy   40.80660846 # occ.  0.00000000
 
ion      s      p      d    tot
    1  0.000  0.141  0.361  0.501
 

 k-point    13 :   -0.25000000 0.25000000 0.05000000     weight = 0.02400000

band     1 # energy   -0.66060323 # occ.  1.00000000
 
ion      s      p      d    tot
    1  0.415  0.099  0.086  0.600
 
band     2 # energy    2.45360678 # occ.  1.00000000
 
ion      s      p      d    tot
    1  0.000  0.001  0.946  0.947
 
band     3 # energy    2.79087946 # occ.  1.00000000
 
ion      s      p      d    tot
    1  0.018  0.042  0.837  0.898
 
band     4 # energy    3.78785252 # occ.  1.00000000
 
ion      s      p      d    tot
    1  0.000  0.003  0.960  0.963
 
band     5 # energy    3.99025007 # occ.  1.00000000
 
ion      s      p      d    tot
    1  0.000  0.007  0.964  0.970
 
band     6 # energy    4.20997479 # occ.  1.00000000
 
ion      s      p      d    tot
    1  0.007  0.002  0.964  0.973
 
band     7 # energy   20.25291268 # occ.  0.00000000
 
ion      s      p      d    tot
    1  0.077  0.221  0.274  0.571
 
band     8 # energy   25.41175427 # occ.  0.00000000
 
ion      s      p      d    tot
    1  0.020  0.172  0.087  0.279
 
band     9 # energy   26.53711579 # occ.  0.00000000
 
ion      s      p      d    tot
    1  0.000  0.332  0.282  0.614
 
band    10 # energy   29.77594497 # occ.  0.00000000
 
ion      s      p      d    tot
    1  0.000  0.236  0.295  0.531
 
band    11 # energy   31.36503159 # occ.  0.00000000
 
ion      s      p      d    tot
    1  0.063  0.270  0.194  0.527
 
band    12 # energy   33.52138701 # occ.  0.00000000
 
ion      s      p      d    tot
    1  0.085  0.155  0.081  0.321
 

 k-point    14 :   -0.15000000 0.25000000 0.05000000     weight = 0.02400000

band     1 # energy   -0.93114145 # occ.  1.00000000
 
ion      s      p      d    tot
    1  0.444  0.097  0.044  0.585
 
band     2 # energy    2.67423662 # occ.  1.00000000
 
ion      s      p      d    tot
    1  0.003  0.009  0.933  0.944
 
band     3 # energy    2.68100375 # occ.  1.00000000
 
ion      s      p      d    tot
    1  0.000  0.010  0.924  0.934
 
band     4 # energy    3.62038334 # occ.  1.00000000
 
ion      s      p      d    tot
    1  0.000  0.001  0.954  0.955
 
band     5 # energy    3.82538600 # occ.  1.00000000
 
ion      s      p      d    tot
    1  0.002  0.011  0.951  0.964
 
band     6 # energy    4.27377648 # occ.  1.00000007
 
ion      s      p      d    tot
    1  0.011  0.003  0.958  0.972
 
band     7 # energy   22.49261307 # occ.  0.00000000
 
ion      s      p      d    tot
    1  0.000  0.168  0.301  0.469
 
band     8 # energy   23.55738682 # occ.  0.00000000
 
ion      s      p      d    tot
    1  0.089  0.264  0.197  0.550
 
band     9 # energy   28.26881185 # occ.  0.00000000
 
ion      s      p      d    tot
    1  0.000  0.095  0.239  0.334
 
band    10 # energy   28.86068627 # occ.  0.00000000
 
ion      s      p      d    tot
    1  0.002  0.465  0.108  0.575
 
band    11 # energy   31.55360039 # occ.  0.00000000
 
ion      s      p      d    tot
    1  0.084  0.124  0.218  0.426
 
band    12 # energy   34.69811853 # occ.  0.00000000
 
ion      s      p      d    tot
    1  0.000  0.331  0.045  0.376
 

 k-point    15 :   -0.35000000 0.35000000 0.05000000     weight = 0.02400000

band     1 # energy    0.39256835 # occ.  1.00000000
 
ion      s      p      d    tot
    1  0.223  0.062  0.441  0.726
 
band     2 # energy    2.18307949 # occ.  1.00000000
 
ion      s      p      d    tot
    1  0.000  0.001  0.938  0.939
 
band     3 # energy    3.22578851 # occ.  1.00000000
 
ion      s      p      d    tot
    1  0.063  0.140  0.595  0.798
 
band     4 # energy    4.00561395 # occ.  1.00000000
 
ion      s      p      d    tot
    1  0.000  0.020  0.941  0.962
 
band     5 # energy    4.43595265 # occ.  1.00001982
 
ion      s      p      d    tot
    1  0.038  0.058  0.822  0.917
 
band     6 # energy    4.73200474 # occ.  1.01507423
 
ion      s      p      d    tot
    1  0.000  0.005  0.975  0.980
 
band     7 # energy   15.84941908 # occ.  0.00000000
 
ion      s      p      d    tot
    1  0.182  0.201  0.286  0.669
 
band     8 # energy   23.78372816 # occ.  0.00000000
 
ion      s      p      d    tot
    1  0.018  0.208  0.051  0.277
 
band     9 # energy   24.80868643 # occ.  0.00000000
 
ion      s      p      d    tot
    1  0.000  0.499  0.167  0.666
 
band    10 # energy   28.84175095 # occ.  0.00000000
 
ion      s      p      d    tot
    1  0.000  0.120  0.430  0.549
 
band    11 # energy   31.26116800 # occ.  0.00000000
 
ion      s      p      d    tot
    1  0.147  0.131  0.261  0.538
 
band    12 # energy   35.31857078 # occ.  0.00000000
 
ion      s      p      d    tot
    1  0.065  0.104  0.149  0.318
 

 k-point    16 :   -0.25000000 0.35000000 0.05000000     weight = 0.04800000

band     1 # energy    0.32236989 # occ.  1.00000000
 
ion      s      p      d    tot
    1  0.297  0.114  0.245  0.656
 
band     2 # energy    2.35857359 # occ.  1.00000000
 
ion      s      p      d    tot
    1  0.001  0.013  0.908  0.922
 
band     3 # energy    2.64571604 # occ.  1.00000000
 
ion      s      p      d    tot
    1  0.021  0.052  0.815  0.887
 
band     4 # energy    3.73344380 # occ.  1.00000000
 
ion      s      p      d    tot
    1  0.000  0.006  0.954  0.960
 
band     5 # energy    4.32781369 # occ.  1.00000052
 
ion      s      p      d    tot
    1  0.009  0.002  0.965  0.976
 
band     6 # energy    4.81990613 # occ.  1.03360486
 
ion      s      p      d    tot
    1  0.041  0.047  0.840  0.928
 
band     7 # energy   18.29582465 # occ.  0.00000000
 
ion      s      p      d    tot
    1  0.099  0.242  0.274  0.614
 
band     8 # energy   21.37488288 # occ.  0.00000000
 
ion      s      p      d    tot
    1  0.081  0.267  0.205  0.553
 
band     9 # energy   26.37713515 # occ.  0.00000000
 
ion      s      p      d    tot
    1  0.001  0.391  0.091  0.483
 
band    10 # energy   28.77315079 # occ.  0.00000000
 
ion      s      p      d    tot
    1  0.025  0.134  0.282  0.442
 
band    11 # energy   32.06431052 # occ.  0.00000000
 
ion      s      p      d    tot
    1  0.057  0.118  0.280  0.455
 
band    12 # energy   35.24939416 # occ.  0.00000000
 
ion      s      p      d    tot
    1  0.070  0.183  0.162  0.414
 

 k-point    17 :   -0.45000000 0.45000000 0.05000000     weight = 0.02400000

band     1 # energy    0.60373937 # occ.  1.00000000
 
ion      s      p      d    tot
    1  0.112  0.008  0.696  0.816
 
band     2 # energy    2.02043450 # occ.  1.00000000
 
ion      s      p      d    tot
    1  0.000  0.001  0.934  0.935
 
band     3 # energy    3.80205341 # occ.  1.00000000
 
ion      s      p      d    tot
    1  0.010  0.072  0.817  0.899
 
band     4 # energy    4.06187201 # occ.  1.00000000
 
ion      s      p      d    tot
    1  0.006  0.007  0.956  0.970
 
band     5 # energy    5.23326675 # occ.  0.03241179
 
ion      s      p      d    tot
    1  0.000  0.001  0.989  0.990
 
band     6 # energy    5.69343523 # occ. -0.00008177
 
ion      s      p      d    tot
    1  0.035  0.385  0.233  0.653
 
band     7 # energy   12.47029454 # occ.  0.00000000
 
ion      s      p      d    tot
    1  0.336  0.061  0.363  0.761
 
band     8 # energy   22.90253509 # occ.  0.00000000
 
ion      s      p      d    tot
    1  0.017  0.224  0.029  0.270
 
band     9 # energy   23.70185671 # occ.  0.00000000
 
ion      s      p      d    tot
    1  0.000  0.569  0.088  0.657
 
band    10 # energy   28.48142744 # occ.  0.00000000
 
ion      s      p      d    tot
    1  0.000  0.082  0.500  0.581
 
band    11 # energy   31.34609764 # occ.  0.00000000
 
ion      s      p      d    tot
    1  0.202  0.045  0.321  0.568
 
band    12 # energy   36.65053497 # occ.  0.00000000
 
ion      s      p      d    tot
    1  0.014  0.066  0.117  0.198
 

 k-point    18 :   -0.35000000 0.45000000 0.05000000     weight = 0.04800000

band     1 # energy    0.86625511 # occ.  1.00000000
 
ion      s      p      d    tot
    1  0.125  0.040  0.631  0.795
 
band     2 # energy    2.17882000 # occ.  1.00000000
 
ion      s      p      d    tot
    1  0.001  0.010  0.916  0.927
 
band     3 # energy    2.98197877 # occ.  1.00000000
 
ion      s      p      d    tot
    1  0.024  0.114  0.697  0.834
 
band     4 # energy    3.94418671 # occ.  1.00000000
 
ion      s      p      d    tot
    1  0.003  0.008  0.954  0.965
 
band     5 # energy    4.67073094 # occ.  1.00591621
 
ion      s      p      d    tot
    1  0.015  0.027  0.918  0.959
 
band     6 # energy    6.19534456 # occ. -0.00000000
 
ion      s      p      d    tot
    1  0.073  0.180  0.561  0.814
 
band     7 # energy   14.20442710 # occ.  0.00000000
 
ion      s      p      d    tot
    1  0.226  0.176  0.297  0.700
 
band     8 # energy   20.16923861 # occ.  0.00000000
 
ion      s      p      d    tot
    1  0.080  0.302  0.179  0.561
 
band     9 # energy   24.85294188 # occ.  0.00000000
 
ion      s      p      d    tot
    1  0.001  0.419  0.041  0.460
 
band    10 # energy   28.91729871 # occ.  0.00000000
 
ion      s      p      d    tot
    1  0.055  0.050  0.400  0.506
 
band    11 # energy   33.19846756 # occ.  0.00000000
 
ion      s      p      d    tot
    1  0.003  0.155  0.248  0.406
 
band    12 # energy   35.04187077 # occ.  0.00000000
 
ion      s      p      d    tot
    1  0.110  0.078  0.239  0.427
 

 k-point    19 :   -0.25000000 0.45000000 0.05000000     weight = 0.02400000

band     1 # energy    1.18758269 # occ.  1.00000000
 
ion      s      p      d    tot
    1  0.148  0.082  0.535  0.765
 
band     2 # energy    2.05543564 # occ.  1.00000000
 
ion      s      p      d    tot
    1  0.000  0.034  0.850  0.884
 
band     3 # energy    2.64322338 # occ.  1.00000000
 
ion      s      p      d    tot
    1  0.012  0.068  0.804  0.884
 
band     4 # energy    3.84553242 # occ.  1.00000000
 
ion      s      p      d    tot
    1  0.000  0.006  0.958  0.964
 
band     5 # energy    4.46562803 # occ.  1.00004829
 
ion      s      p      d    tot
    1  0.018  0.007  0.946  0.971
 
band     6 # energy    6.40581851 # occ. -0.00000000
 
ion      s      p      d    tot
    1  0.093  0.141  0.604  0.838
 
band     7 # energy   16.54708567 # occ.  0.00000000
 
ion      s      p      d    tot
    1  0.000  0.308  0.317  0.625
 
band     8 # energy   17.21464123 # occ.  0.00000000
 
ion      s      p      d    tot
    1  0.286  0.210  0.155  0.651
 
band     9 # energy   25.93064701 # occ.  0.00000000
 
ion      s      p      d    tot
    1  0.017  0.434  0.075  0.526
 
band    10 # energy   28.64945498 # occ.  0.00000000
 
ion      s      p      d    tot
    1  0.000  0.089  0.259  0.348
 
band    11 # energy   32.00929561 # occ.  0.00000000
 
ion      s      p      d    tot
    1  0.088  0.032  0.326  0.446
 
band    12 # energy   39.40591178 # occ.  0.00000000
 
ion      s      p      d    tot
    1  0.000  0.238  0.136  0.375
 

 k-point    20 :   -0.45000000-0.45000000 0.05000000     weight = 0.02400000

band     1 # energy    0.88560774 # occ.  1.00000000
 
ion      s      p      d    tot
    1  0.082  0.015  0.735  0.832
 
band     2 # energy    2.11972362 # occ.  1.00000000
 
ion      s      p      d    tot
    1  0.000  0.008  0.921  0.929
 