FCC Au                                  
   3.95000000000000     
     0.000000    0.500000    0.500000
     0.500000    0.000000    0.500000
     0.500000    0.500000    0.000000
   Au
     1
Direct
  0.000000  0.000000  0.000000
 
   20   20   20
  73.882      70.325      61.376      50.443      39.665      29.359      19.787      12.194      7.6768      5.7472    
  5.2209      5.7472      7.6768      12.194      19.787      29.359      39.665      50.443      61.376      70.325    
  70.325      64.161      54.407      43.842      33.554      23.725      15.197      9.3041      6.3562      5.2490    
  5.2565      6.3665      9.3019      15.193      23.739      33.573      43.816      54.305      64.032      70.266    
  61.376      54.407      45.363      35.800      26.305      17.596      10.926      7.0627      5.3615      4.8884    
  5.3666      7.0625      10.922      17.605      26.332      35.809      45.312      54.301      61.288      64.032    
  50.443      43.842      35.800      27.201      18.909      12.110      7.7260      5.5410      4.6573      4.6568    
  5.5381      7.7202      12.107      18.915      27.216      35.815      43.847      50.438      54.301      54.305    
  39.665      33.554      26.305      18.909      12.547      8.1400      5.7099      4.5339      4.2032      4.5357    
  5.7096      8.1322      12.531      18.894      26.305      33.579      39.705      43.847      45.312      43.816    
  29.359      23.725      17.596      12.110      8.1400      5.7837      4.4898      3.9480      3.9486      4.4938    
  5.7911      8.1411      12.093      17.561      23.692      29.346      33.579      35.815      35.809      33.573    
  19.787      15.197      10.926      7.7260      5.7099      4.4898      3.8679      3.6816      3.8654      4.4965    
  5.7305      7.7457      10.923      15.162      19.735      23.692      26.305      27.216      26.332      23.739    
  12.194      9.3041      7.0627      5.5410      4.5339      3.9480      3.6816      3.6787      3.9423      4.5346    
  5.5582      7.0965      9.3368      12.200      15.162      17.561      18.894      18.915      17.605      15.193    
  7.6768      6.3562      5.3615      4.6573      4.2032      3.9486      3.8654      3.9423      4.1861      4.6372    
  5.3617      6.3913      7.7297      9.3368      10.923      12.093      12.531      12.107      10.922      9.3019    
  5.7472      5.2490      4.8884      4.6568      4.5357      4.4938      4.4965      4.5346      4.6372      4.8531    
  5.2202      5.7453      6.3913      7.0965      7.7457      8.1411      8.1322      7.7202      7.0625      6.3665    
  5.2209      5.2565      5.3666      5.5381      5.7096      5.7911      5.7305      5.5582      5.3617      5.2202    
  5.1706      5.2202      5.3617      5.5582      5.7305      5.7911      5.7096      5.5381      5.3666      5.2565    
  5.7472      6.3665      7.0625      7.7202      8.1322      8.1411      7.7457      7.0965      6.3913      5.7453    
  5.2202      4.8531      4.6372      4.5346      4.4965      4.4938      4.5357      4.6568      4.8884      5.2490    
  7.6768      9.3019      10.922      12.107      12.531      12.093      10.923      9.3368      7.7297      6.3913    
  5.3617      4.6372      4.1861      3.9423      3.8654      3.9486      4.2032      4.6573      5.3615      6.3562    
  12.194      15.193      17.605      18.915      18.894      17.561      15.162      12.200      9.3368      7.0965    
  5.5582      4.5346      3.9423      3.6787      3.6816      3.9480      4.5339      5.5410      7.0627      9.3041    
  19.787      23.739      26.332      27.216      26.305      23.692      19.735      15.162      10.923      7.7457    
  5.7305      4.4965      3.8654      3.6816      3.8679      4.4898      5.7099      7.7260      10.926      15.197    
  29.359      33.573      35.809      35.815      33.579      29.346      23.692      17.561      12.093      8.1411    
  5.7911      4.4938      3.9486      3.9480      4.4898      5.7837      8.1400      12.110      17.596      23.725    
  39.665      43.816      45.312      43.847      39.705      33.579      26.305      18.894      12.531      8.1322    
  5.7096      4.5357      4.2032      4.5339      5.7099      8.1400      12.547      18.909      26.305      33.554    
  50.443      54.305      54.301      50.438      43.847      35.815      27.216      18.915      12.107      7.7202    
  5.5381      4.6568      4.6573      5.5410      7.7260      12.110      18.909      27.201      35.800      43.842    
  61.376      64.032      61.288      54.301      45.312      35.809      26.332      17.605      10.922      7.0625    
  5.3666      4.8884      5.3615      7.0627      10.926      17.596      26.305      35.800      45.363      54.407    
  70.325      70.266      64.032      54.305      43.816      33.573      23.739      15.193      9.3019      6.3665    
  5.2565      5.2490      6.3562      9.3041      15.197      23.725      33.554      43.842      54.407      64.161    
  70.325      64.161      54.407      43.842      33.554      23.725      15.197      9.3041      6.3562      5.2490    
  5.2565      6.3665      9.3019      15.193      23.739      33.573      43.816      54.305      64.032      70.266    
  64.161      56.547      46.865      36.903      27.181      18.247      11.320      7.2607      5.4874      4.9985    
  5.4948      7.2599      11.315      18.265      27.224      36.914      46.771      56.364      64.008      67.069    
  54.407      46.865      38.076      28.999      20.286      13.004      8.1931      5.7981      4.8476      4.8486    
  5.7959      8.1855      13.008      20.317      29.040      38.076      46.794      54.306      58.895      58.943    
  43.842      36.903      28.999      21.001      13.963      8.9151      6.1013      4.7826      4.4156      4.7876    
  6.1000      8.9029      13.953      21.012      29.032      36.941      43.868      48.800      50.617      48.790    
  33.554      27.181      20.286      13.963      9.1950      6.3083      4.7793      4.1463      4.1505      4.7862    
  6.3059      9.1774      13.939      20.274      27.198      33.597      38.519      41.203      41.183      38.473    
  23.725      18.247      13.004      8.9151      6.3083      4.7932      4.0265      3.8039      4.0252      4.7983    
  6.3194      8.9171      12.984      18.211      23.696      28.399      31.512      32.591      31.507      28.405    
  15.197      11.320      8.1931      6.1013      4.7793      4.0265      3.6983      3.6942      4.0236      4.7928    
  6.1301      8.2162      11.316      15.164      19.022      22.071      23.733      23.746      22.106      19.067    
  9.3041      7.2607      5.7981      4.7826      4.1463      3.8039      3.6942      3.7989      4.1396      4.7842    
  5.8191      7.2991      9.3389      11.761      14.069      15.717      16.322      15.742      14.091      11.754    
  6.3562      5.4874      4.8476      4.4156      4.1505      4.0252      4.0236      4.1396      4.3905      4.8234    
  5.4903      6.3936      7.5021      8.7380      9.8417      10.501      10.504      9.8389      8.7100      7.4542    
  5.2490      4.9985      4.8486      4.7876      4.7862      4.7983      4.7928      4.7842      4.8234      4.9609    
  5.2217      5.6025      6.0675      6.5437      6.9223      7.0642      6.9065      6.5190      6.0482      5.6045    
  5.2565      5.4948      5.7959      6.1000      6.3059      6.3194      6.1301      5.8191      5.4903      5.2217    
  5.0487      4.9809      5.0083      5.0878      5.1489      5.1403      5.0736      5.0116      5.0123      5.0950    
  6.3665      7.2599      8.1855      8.9029      9.1774      8.9171      8.2162      7.2991      6.3936      5.6025    
  4.9809      4.5560      4.3025      4.1737      4.1330      4.1731      4.3134      4.5824      5.0065      5.6045    
  9.3019      11.315      13.008      13.953      13.939      12.984      11.316      9.3389      7.5021      6.0675    
  5.0083      4.3025      3.8884      3.6980      3.7010      3.8985      4.3154      5.0084      6.0398      7.4542    
  15.193      18.265      20.317      21.012      20.274      18.211      15.164      11.761      8.7380      6.5437    
  5.0878      4.1737      3.6980      3.5544      3.7014      4.1745      5.0774      6.5196      8.7113      11.754    
  23.739      27.224      29.040      29.032      27.198      23.696      19.022      14.069      9.8417      6.9223    
  5.1489      4.1330      3.7010      3.7014      4.1299      5.1374      6.9099      9.8452      14.098      19.067    
  33.573      36.914      38.076      36.941      33.597      28.399      22.071      15.717      10.501      7.0642    
  5.1403      4.1731      3.8985      4.1745      5.1374      7.0599      10.509      15.745      22.102      28.405    
  43.816      46.771      46.794      43.868      38.519      31.512      23.733      16.322      10.504      6.9065    
  5.0736      4.3134      4.3154      5.0774      6.9099      10.509      16.330      23.735      31.493      38.473    
  54.305      56.364      54.306      48.800      41.203      32.591      23.746      15.742      9.8389      6.5190    
  5.0116      4.5824      5.0084      6.5196      9.8452      15.745      23.735      32.569      41.182      48.790    
  64.032      64.008      58.895      50.617      41.183      31.507      22.106      14.091      8.7100      6.0482    
  5.0123      5.0065      6.0398      8.7113      14.098      22.102      31.493      41.182      50.649      58.943    
  70.266      67.069      58.943      48.790      38.473      28.405      19.067      11.754      7.4542      5.6045    
  5.0950      5.6045      7.4542      11.754      19.067      28.405      38.473      48.790      58.943      67.069    
  61.376      54.407      45.363      35.800      26.305      17.596      10.926      7.0627      5.3615      4.8884    
  5.3666      7.0625      10.922      17.605      26.332      35.809      45.312      54.301      61.288      64.032    
  54.407      46.865      38.076      28.999      20.286      13.004      8.1931      5.7981      4.8476      4.8486    
  5.7959      8.1855      13.008      20.317      29.040      38.076      46.794      54.306      58.895      58.943    
  45.363      38.076      29.917      21.716      14.459      9.1949      6.2424      4.8724      4.4912      4.8776    
  6.2400      9.1838      14.460      21.747      29.966      38.109      45.362      50.634      52.610      50.649    
  35.800      28.999      21.716      14.979      9.7912      6.6021      4.9424      4.2586      4.2638      4.9498    
  6.5974      9.7722      14.962      21.727      29.050      35.877      41.252      44.249      44.221      41.182    
  26.305      20.286      14.459      9.7912      6.7460      5.0116      4.1404      3.8933      4.1418      5.0144    
  6.7438      9.7742      14.431      20.271      26.330      31.552      35.059      36.274      35.008      31.493    
  17.596      13.004      9.1949      6.6021      5.0116      4.1090      3.7255      3.7217      4.1059      5.0208    
  6.6177      9.1961      12.980      17.561      22.081      25.631      27.559      27.557      25.634      22.102    
  10.926      8.1931      6.2424      4.9424      4.1404      3.7255      3.5956      3.7197      4.1409      4.9594    
  6.2711      8.2153      10.925      14.071      16.997      19.045      19.785      19.070      17.034      14.098    
  7.0627      5.7981      4.8724      4.2586      3.8933      3.7217      3.7197      3.8864      4.2494      4.8726    
  5.8197      7.1006      8.7425      10.549      12.112      13.022      13.031      12.125      10.543      8.7113    
  5.3615      4.8476      4.4912      4.2638      4.1418      4.1059      4.1409      4.2494      4.4613      4.8228    
  5.3655      6.0724      6.8794      7.6988      8.3347      8.5770      8.3304      7.6786      6.8424      6.0398    
  4.8884      4.8486      4.8776      4.9498      5.0144      5.0208      4.9594      4.8726      4.8228      4.8544    
  4.9837      5.2056      5.4885      5.7622      5.9315      5.9251      5.7470      5.4755      5.2077      5.0065    
  5.3666      5.7959      6.2400      6.5974      6.7438      6.6177      6.2711      5.8197      5.3655      4.9837    
  4.7116      4.5572      4.5010      4.4970      4.4971      4.4879      4.5008      4.5801      4.7495      5.0123    
  7.0625      8.1855      9.1838      9.7722      9.7742      9.1961      8.2153      7.1006      6.0724      5.2056    
  4.5572      4.1307      3.8823      3.7676      3.7668      3.8858      4.1454      4.5755      5.2077      6.0482    
  10.922      13.008      14.460      14.962      14.431      12.980      10.925      8.7425      6.8794      5.4885    
  4.5010      3.8823      3.5514      3.4489      3.5567      3.8895      4.5003      5.4687      6.8424      8.7100    
  17.605      20.317      21.747      21.727      20.271      17.561      14.071      10.549      7.6988      5.7622    
  4.4970      3.7676      3.4489      3.4505      3.7693      4.4920      5.7474      7.6808      10.543      14.091    
  26.332      29.040      29.966      29.050      26.330      22.081      16.997      12.112      8.3347      5.9315    
  4.4971      3.7668      3.5567      3.7693      4.4934      5.9216      8.3344      12.134      17.034      22.106    
  35.809      38.076      38.109      35.877      31.552      25.631      19.045      13.022      8.5770      5.9251    
  4.4879      3.8858      3.8895      4.4920      5.9216      8.5754      13.038      19.072      25.634      31.507    
  45.312      46.794      45.362      41.252      35.059      27.559      19.785      13.031      8.3304      5.7470    
  4.5008      4.1454      4.5003      5.7474      8.3344      13.038      19.787      27.540      35.008      41.183    
  54.301      54.306      50.634      44.249      36.274      27.557      19.070      12.125      7.6786      5.4755    
  4.5801      4.5755      5.4687      7.6808      12.134      19.072      27.540      36.243      44.221      50.617    
  61.288      58.895      52.610      44.221      35.008      25.634      17.034      10.543      6.8424      5.2077    
  4.7495      5.2077      6.8424      10.543      17.034      25.634      35.008      44.221      52.610      58.895    
  64.032      58.943      50.649      41.182      31.493      22.102      14.098      8.7113      6.0398      5.0065    
  5.0123      6.0482      8.7100      14.091      22.106      31.507      41.183      50.617      58.895      64.008    
  50.443      43.842      35.800      27.201      18.909      12.110      7.7260      5.5410      4.6573      4.6568    
  5.5381      7.7202      12.107      18.915      27.216      35.815      43.847      50.438      54.301      54.305    
  43.842      36.903      28.999      21.001      13.963      8.9151      6.1013      4.7826      4.4156      4.7876    
  6.1000      8.9029      13.953      21.012      29.032      36.941      43.868      48.800      50.617      48.790    
  35.800      28.999      21.716      14.979      9.7912      6.6021      4.9424      4.2586      4.2638      4.9498    
  6.5974      9.7722      14.962      21.727      29.050      35.877      41.252      44.249      44.221      41.182    
  27.201      21.001      14.979      10.108      6.9029      5.0899      4.1834      3.9271      4.1842      5.0928    
  6.9006      10.088      14.946      20.991      27.250      32.665      36.323      37.586      36.243      32.569    
  18.909      13.963      9.7912      6.9029      5.1480      4.1593      3.7463      3.7430      4.1572      5.1552    
  6.9063      9.7687      13.919      18.883      23.757      27.592      29.671      29.643      27.540      23.735    
  12.110      8.9151      6.6021      5.0899      4.1593      3.6885      3.5452      3.6831      4.1607      5.1035    
  6.6152      8.9095      12.083      15.712      19.050      21.370      22.197      21.378      19.072      15.745    
  7.7260      6.1013      4.9424      4.1834      3.7463      3.5452      3.5412      3.7396      4.1851      4.9588    
  6.1266      7.7443      9.8426      12.110      14.031      15.133      15.146      14.061      12.134      9.8452    
  5.5410      4.7826      4.2586      3.9271      3.7430      3.6831      3.7396      3.9178      4.2475      4.7821    
  5.5596      6.5491      7.7021      8.8580      9.7297      10.058      9.7352      8.8547      7.6808      6.5196    
  4.6573      4.4156      4.2638      4.1842      4.1572      4.1607      4.1851      4.2475      4.3854      4.6354    
  5.0120      5.4924      6.0088      6.4672      6.7472      6.7444      6.4550      5.9848      5.4687      5.0084    
  4.6568      4.7876      4.9498      5.0928      5.1552      5.1035      4.9588      4.7821      4.6354      4.5562    
  4.5583      4.6376      4.7649      4.8825      4.9273      4.8744      4.7568      4.6397      4.5755      4.5824    
  5.5381      6.1000      6.5974      6.9006      6.9063      6.6152      6.1266      5.5596      5.0120      4.5583    
  4.2326      4.0328      3.9306      3.8882      3.8841      3.9273      4.0449      4.2590      4.5801      5.0116    
  7.7202      8.9029      9.7722      10.088      9.7687      8.9095      7.7443      6.5491      5.4924      4.6376    
  4.0328      3.6522      3.4445      3.3772      3.4442      3.6574      4.0428      4.6397      5.4755      6.5190    
  12.107      13.953      14.962      14.946      13.919      12.083      9.8426      7.7021      6.0088      4.7649    
  3.9306      3.4445      3.2241      3.2259      3.4480      3.9300      4.7530      5.9848      7.6786      9.8389    
  18.915      21.012      21.727      20.991      18.883      15.712      12.110      8.8580      6.4672      4.8825    
  3.8882      3.3772      3.2259      3.3808      3.8880      4.8735      6.4548      8.8547      12.125      15.742    
  27.216      29.032      29.050      27.250      23.757      19.050      14.031      9.7297      6.7472      4.9273    
  3.8841      3.4442      3.4480      3.8880      4.9225      6.7418      9.7414      14.061      19.070      23.746    
  35.815      36.941      35.877      32.665      27.592      21.370      15.133      10.058      6.7444      4.8744    
  3.9273      3.6574      3.9300      4.8735      6.7418      10.066      15.153      21.378      27.557      32.591    
  43.847      43.868      41.252      36.323      29.671      22.197      15.146      9.7352      6.4550      4.7568    
  4.0449      4.0428      4.7530      6.4548      9.7414      15.153      22.193      29.643      36.274      41.203    
  50.438      48.800      44.249      37.586      29.643      21.378      14.061      8.8547      5.9848      4.6397    
  4.2590      4.6397      5.9848      8.8547      14.061      21.378      29.643      37.586      44.249      48.800    
  54.301      50.617      44.221      36.243      27.540      19.072      12.134      7.6808      5.4687      4.5755    
  4.5801      5.4755      7.6786      12.125      19.070      27.557      36.274      44.249      50.634      54.306    
  54.305      48.790      41.182      32.569      23.735      15.745      9.8452      6.5196      5.0084      4.5824    
  5.0116      6.5190      9.8389      15.742      23.746      32.591      41.203      48.800      54.306      56.364    
  39.665      33.554      26.305      18.909      12.547      8.1400      5.7099      4.5339      4.2032      4.5357    
  5.7096      8.1322      12.531      18.894      26.305      33.579      39.705      43.847      45.312      43.816    
  33.554      27.181      20.286      13.963      9.1950      6.3083      4.7793      4.1463      4.1505      4.7862    
  6.3059      9.1774      13.939      20.274      27.198      33.597      38.519      41.203      41.183      38.473    
  26.305      20.286      14.459      9.7912      6.7460      5.0116      4.1404      3.8933      4.1418      5.0144    
  6.7438      9.7742      14.431      20.271      26.330      31.552      35.059      36.274      35.008      31.493    
  18.909      13.963      9.7912      6.9029      5.1480      4.1593      3.7463      3.7430      4.1572      5.1552    
  6.9063      9.7687      13.919      18.883      23.757      27.592      29.671      29.643      27.540      23.735    
  12.547      9.1950      6.7460      5.1480      4.1669      3.6770      3.5311      3.6737      4.1708      5.1592    
  6.7464      9.1688      12.505      16.302      19.788      22.206      23.059      22.193      19.787      16.330    
  8.1400      6.3083      5.0116      4.1593      3.6770      3.4622      3.4597      3.6742      4.1639      5.0233    
  6.3169      8.1346      10.488      13.010      15.130      16.337      16.346      15.153      13.038      10.509    
  5.7099      4.7793      4.1404      3.7463      3.5311      3.4597      3.5259      3.7412      4.1425      4.7922    
  5.7288      6.9228      8.3314      9.7249      10.758      11.146      10.774      9.7414      8.3344      6.9099    
  4.5339      4.1463      3.8933      3.7430      3.6737      3.6742      3.7412      3.8852      4.1360      4.5322    
  5.0894      5.7657      6.4675      7.0824      7.4504      7.4507      7.0790      6.4548      5.7474      5.0774    
  4.2032      4.1505      4.1418      4.1572      4.1708      4.1639      4.1425      4.1360      4.1800      4.2996    
  4.5010      4.7655      5.0426      5.2569      5.3363      5.2498      5.0294      4.7530      4.5003      4.3154    
  4.5357      4.7862      5.0144      5.1552      5.1592      5.0233      4.7922      4.5322      4.2996      4.1280    
  4.0310      4.0037      4.0203      4.0414      4.0384      4.0155      4.0053      4.0428      4.1454      4.3134    
  5.7096      6.3059      6.7438      6.9063      6.7464      6.3169      5.7288      5.0894      4.5010      4.0310    
  3.6997      3.4924      3.3808      3.3437      3.3784      3.4965      3.7138      4.0449      4.5008      5.0736    
  8.1322      9.1774      9.7742      9.7687      9.1688      8.1346      6.9228      5.7657      4.7655      4.0037    
  3.4924      3.1867      3.0426      3.0419      3.1870      3.4959      4.0053      4.7568      5.7470      6.9065    
  12.531      13.939      14.431      13.919      12.505      10.488      8.3314      6.4675      5.0426      4.0203    
  3.3808      3.0426      2.9385      3.0447      3.3809      4.0138      5.0294      6.4550      8.3304      10.504    
  18.894      20.274      20.271      18.883      16.302      13.010      9.7249      7.0824      5.2569      4.0414    
  3.3437      3.0419      3.0447      3.3473      4.0383      5.2484      7.0790      9.7352      13.031      16.322    
  26.305      27.198      26.330      23.757      19.788      15.130      10.758      7.4504      5.3363      4.0384    
  3.3784      3.1870      3.3809      4.0383      5.3337      7.4543      10.774      15.146      19.785      23.733    
  33.579      33.597      31.552      27.592      22.206      16.337      11.146      7.4507      5.2498      4.0155    
  3.4965      3.4959      4.0138      5.2484      7.4543      11.156      16.346      22.197      27.559      31.512    
  39.705      38.519      35.059      29.671      23.059      16.346      10.774      7.0790      5.0294      4.0053    
  3.7138      4.0053      5.0294      7.0790      10.774      16.346      23.059      29.671      35.059      38.519    
  43.847      41.203      36.274      29.643      22.193      15.153      9.7414      6.4548      4.7530      4.0428    
  4.0449      4.7568      6.4550      9.7352      15.146      22.197      29.671      36.323      41.252      43.868    
  45.312      41.183      35.008      27.540      19.787      13.038      8.3344      5.7474      4.5003      4.1454    
  4.5008      5.7470      8.3304      13.031      19.785      27.559      35.059      41.252      45.362      46.794    
  43.816      38.473      31.493      23.735      16.330      10.509      6.9099      5.0774      4.3154      4.3134    
  5.0736      6.9065      10.504      16.322      23.733      31.512      38.519      43.868      46.794      46.771    
  29.359      23.725      17.596      12.110      8.1400      5.7837      4.4898      3.9480      3.9486      4.4938    
  5.7911      8.1411      12.093      17.561      23.692      29.346      33.579      35.815      35.809      33.573    
  23.725      18.247      13.004      8.9151      6.3083      4.7932      4.0265      3.8039      4.0252      4.7983    
  6.3194      8.9171      12.984      18.211      23.696      28.399      31.512      32.591      31.507      28.405    
  17.596      13.004      9.1949      6.6021      5.0116      4.1090      3.7255      3.7217      4.1059      5.0208    
  6.6177      9.1961      12.980      17.561      22.081      25.631      27.559      27.557      25.634      22.102    
  12.110      8.9151      6.6021      5.0899      4.1593      3.6885      3.5452      3.6831      4.1607      5.1035    
  6.6152      8.9095      12.083      15.712      19.050      21.370      22.197      21.378      19.072      15.745    
  8.1400      6.3083      5.0116      4.1593      3.6770      3.4622      3.4597      3.6742      4.1639      5.0233    
  6.3169      8.1346      10.488      13.010      15.130      16.337      16.346      15.153      13.038      10.509    
  5.7837      4.7932      4.1090      3.6885      3.4622      3.3893      3.4600      3.6866      4.1117      4.8027    
  5.7965      7.0663      8.5669      10.046      11.139      11.548      11.156      10.066      8.5754      7.0599    
  4.4898      4.0265      3.7255      3.5452      3.4597      3.4600      3.5445      3.7227      4.0258      4.4977    
  5.1529      5.9343      6.7421      7.4454      7.8643      7.8697      7.4543      6.7418      5.9216      5.1374    
  3.9480      3.8039      3.7217      3.6831      3.6742      3.6866      3.7227      3.7985      3.9405      4.1727    
  4.4983      4.8830      5.2551      5.5267      5.6265      5.5243      5.2484      4.8735      4.4920      4.1745    
  3.9486      4.0252      4.1059      4.1607      4.1639      4.1117      4.0258      3.9405      3.8855      3.8794    
  3.9277      4.0186      4.1188      4.1834      4.1804      4.1121      4.0138      3.9300      3.8895      3.8985    
  4.4938      4.7983      5.0208      5.1035      5.0233      4.8027      4.4977      4.1727      3.8794      3.6481    
  3.4895      3.3976      3.3542      3.3411      3.3523      3.3983      3.4959      3.6574      3.8858      4.1731    
  5.7911      6.3194      6.6177      6.6152      6.3169      5.7965      5.1529      4.4983      3.9277      3.4895    
  3.1866      2.9989      2.9079      2.9071      2.9997      3.1923      3.4965      3.9273      4.4879      5.1403    
  8.1411      8.9171      9.1961      8.9095      8.1346      7.0663      5.9343      4.8830      4.0186      3.3976    
  2.9989      2.7782      2.7068      2.7778      2.9995      3.3983      4.0155      4.8744      5.9251      7.0642    
  12.093      12.984      12.980      12.083      10.488      8.5669      6.7421      5.2551      4.1188      3.3542    
  2.9079      2.7068      2.7084      2.9098      3.3518      4.1121      5.2498      6.7444      8.5770      10.501    
  17.561      18.211      17.561      15.712      13.010      10.046      7.4454      5.5267      4.1834      3.3411    
  2.9071      2.7778      2.9098      3.3416      4.1798      5.5243      7.4507      10.058      13.022      15.717    
  23.692      23.696      22.081      19.050      15.130      11.139      7.8643      5.6265      4.1804      3.3523    
  2.9997      2.9995      3.3518      4.1798      5.6281      7.8697      11.146      15.133      19.045      22.071    
  29.346      28.399      25.631      21.370      16.337      11.548      7.8697      5.5243      4.1121      3.3983    
  3.1923      3.3983      4.1121      5.5243      7.8697      11.548      16.337      21.370      25.631      28.399    
  33.579      31.512      27.559      22.197      16.346      11.156      7.4543      5.2484      4.0138      3.4959    
  3.4965      4.0155      5.2498      7.4507      11.146      16.337      22.206      27.592      31.552      33.597    
  35.815      32.591      27.557      21.378      15.153      10.066      6.7418      4.8735      3.9300      3.6574    
  3.9273      4.8744      6.7444      10.058      15.133      21.370      27.592      32.665      35.877      36.941    
  35.809      31.507      25.634      19.072      13.038      8.5754      5.9216      4.4920      3.8895      3.8858    
  4.4879      5.9251      8.5770      13.022      19.045      25.631      31.552      35.877      38.109      38.076    
  33.573      28.405      22.102      15.745      10.509      7.0599      5.1374      4.1745      3.8985      4.1731    
  5.1403      7.0642      10.501      15.717      22.071      28.399      33.597      36.941      38.076      36.914    
  19.787      15.197      10.926      7.7260      5.7099      4.4898      3.8679      3.6816      3.8654      4.4965    
  5.7305      7.7457      10.923      15.162      19.735      23.692      26.305      27.216      26.332      23.739    
  15.197      11.320      8.1931      6.1013      4.7793      4.0265      3.6983      3.6942      4.0236      4.7928    
  6.1301      8.2162      11.316      15.164      19.022      22.071      23.733      23.746      22.106      19.067    
  10.926      8.1931      6.2424      4.9424      4.1404      3.7255      3.5956      3.7197      4.1409      4.9594    