FCC Au                                  
   3.95000000000000     
     0.000000    0.500000    0.500000
     0.500000    0.000000    0.500000
     0.500000    0.500000    0.000000
   Au
     1
Direct
  0.000000  0.000000  0.000000
 
   20   20   20
 0.73882043418E+02 0.70325471161E+02 0.61376460323E+02 0.50442747902E+02 0.39665355234E+02
 0.29359055804E+02 0.19786539834E+02 0.12194176063E+02 0.76767531288E+01 0.57471943338E+01
 0.52208551258E+01 0.57471943338E+01 0.76767531288E+01 0.12194176063E+02 0.19786539834E+02
 0.29359055804E+02 0.39665355234E+02 0.50442747902E+02 0.61376460323E+02 0.70325471161E+02
 0.70325471161E+02 0.64160732675E+02 0.54406800976E+02 0.43842344137E+02 0.33553676917E+02
 0.23724521357E+02 0.15196989758E+02 0.93041404555E+01 0.63561895599E+01 0.52489771116E+01
 0.52564868758E+01 0.63664922731E+01 0.93018619767E+01 0.15192503280E+02 0.23738747189E+02
 0.33573477003E+02 0.43816106032E+02 0.54304945577E+02 0.64031668175E+02 0.70265864750E+02
 0.61376460323E+02 0.54406800976E+02 0.45363075840E+02 0.35800110573E+02 0.26305070998E+02
 0.17595729822E+02 0.10926472099E+02 0.70627447516E+01 0.53614892575E+01 0.48883715909E+01
 0.53666283768E+01 0.70625432185E+01 0.10922352493E+02 0.17605286166E+02 0.26331692789E+02
 0.35809372048E+02 0.45311676749E+02 0.54301469039E+02 0.61287699820E+02 0.64031668175E+02
 0.50442747902E+02 0.43842344137E+02 0.35800110573E+02 0.27201481760E+02 0.18909337574E+02
 0.12110381894E+02 0.77259779852E+01 0.55410203566E+01 0.46573459074E+01 0.46567965196E+01
 0.55380924371E+01 0.77202464504E+01 0.12106756951E+02 0.18914819077E+02 0.27216177921E+02
 0.35814539012E+02 0.43846786002E+02 0.50438227506E+02 0.54301469039E+02 0.54304945577E+02
 0.39665355234E+02 0.33553676917E+02 0.26305070998E+02 0.18909337574E+02 0.12546621086E+02
 0.81399659895E+01 0.57099145552E+01 0.45338742230E+01 0.42031857052E+01 0.45357462379E+01
 0.57096161998E+01 0.81321814161E+01 0.12530607922E+02 0.18893913439E+02 0.26305420091E+02
 0.33578589880E+02 0.39705446280E+02 0.43846786002E+02 0.45311676749E+02 0.43816106032E+02
 0.29359055804E+02 0.23724521357E+02 0.17595729822E+02 0.12110381894E+02 0.81399659895E+01
 0.57836677910E+01 0.44897877201E+01 0.39479595359E+01 0.39485683062E+01 0.44937781950E+01
 0.57911225939E+01 0.81410956556E+01 0.12092782310E+02 0.17561066224E+02 0.23691787959E+02
 0.29346275765E+02 0.33578589880E+02 0.35814539012E+02 0.35809372048E+02 0.33573477003E+02
 0.19786539834E+02 0.15196989758E+02 0.10926472099E+02 0.77259779852E+01 0.57099145552E+01
 0.44897877201E+01 0.38679133901E+01 0.36816264748E+01 0.38653753490E+01 0.44964884791E+01
 0.57304554925E+01 0.77456601334E+01 0.10922989256E+02 0.15162424235E+02 0.19734562704E+02
 0.23691787959E+02 0.26305420091E+02 0.27216177921E+02 0.26331692789E+02 0.23738747189E+02
 0.12194176063E+02 0.93041404555E+01 0.70627447516E+01 0.55410203566E+01 0.45338742230E+01
 0.39479595359E+01 0.36816264748E+01 0.36786617185E+01 0.39422815791E+01 0.45345799871E+01
 0.55582276693E+01 0.70965125959E+01 0.93368231231E+01 0.12200114494E+02 0.15162424235E+02
 0.17561066224E+02 0.18893913439E+02 0.18914819077E+02 0.17605286166E+02 0.15192503280E+02
 0.76767531288E+01 0.63561895599E+01 0.53614892575E+01 0.46573459074E+01 0.42031857052E+01
 0.39485683062E+01 0.38653753490E+01 0.39422815791E+01 0.41860701145E+01 0.46372357567E+01
 0.53617185653E+01 0.63913024249E+01 0.77296778417E+01 0.93368231231E+01 0.10922989256E+02
 0.12092782310E+02 0.12530607922E+02 0.12106756951E+02 0.10922352493E+02 0.93018619767E+01
 0.57471943338E+01 0.52489771116E+01 0.48883715909E+01 0.46567965196E+01 0.45357462379E+01
 0.44937781950E+01 0.44964884791E+01 0.45345799871E+01 0.46372357567E+01 0.48531480901E+01
 0.52202185655E+01 0.57453152783E+01 0.63913024249E+01 0.70965125959E+01 0.77456601334E+01
 0.81410956556E+01 0.81321814161E+01 0.77202464504E+01 0.70625432185E+01 0.63664922731E+01
 0.52208551258E+01 0.52564868758E+01 0.53666283768E+01 0.55380924371E+01 0.57096161998E+01
 0.57911225939E+01 0.57304554925E+01 0.55582276693E+01 0.53617185653E+01 0.52202185655E+01
 0.51706039359E+01 0.52202185655E+01 0.53617185653E+01 0.55582276693E+01 0.57304554925E+01
 0.57911225939E+01 0.57096161998E+01 0.55380924371E+01 0.53666283768E+01 0.52564868758E+01
 0.57471943338E+01 0.63664922731E+01 0.70625432185E+01 0.77202464504E+01 0.81321814161E+01
 0.81410956556E+01 0.77456601334E+01 0.70965125959E+01 0.63913024249E+01 0.57453152783E+01
 0.52202185655E+01 0.48531480901E+01 0.46372357567E+01 0.45345799871E+01 0.44964884791E+01
 0.44937781950E+01 0.45357462379E+01 0.46567965196E+01 0.48883715909E+01 0.52489771116E+01
 0.76767531288E+01 0.93018619767E+01 0.10922352493E+02 0.12106756951E+02 0.12530607922E+02
 0.12092782310E+02 0.10922989256E+02 0.93368231231E+01 0.77296778417E+01 0.63913024249E+01
 0.53617185653E+01 0.46372357567E+01 0.41860701145E+01 0.39422815791E+01 0.38653753490E+01
 0.39485683062E+01 0.42031857052E+01 0.46573459074E+01 0.53614892575E+01 0.63561895599E+01
 0.12194176063E+02 0.15192503280E+02 0.17605286166E+02 0.18914819077E+02 0.18893913439E+02
 0.17561066224E+02 0.15162424235E+02 0.12200114494E+02 0.93368231231E+01 0.70965125959E+01
 0.55582276693E+01 0.45345799871E+01 0.39422815791E+01 0.36786617185E+01 0.36816264748E+01
 0.39479595359E+01 0.45338742230E+01 0.55410203566E+01 0.70627447516E+01 0.93041404555E+01
 0.19786539834E+02 0.23738747189E+02 0.26331692789E+02 0.27216177921E+02 0.26305420091E+02
 0.23691787959E+02 0.19734562704E+02 0.15162424235E+02 0.10922989256E+02 0.77456601334E+01
 0.57304554925E+01 0.44964884791E+01 0.38653753490E+01 0.36816264748E+01 0.38679133901E+01
 0.44897877201E+01 0.57099145552E+01 0.77259779852E+01 0.10926472099E+02 0.15196989758E+02
 0.29359055804E+02 0.33573477003E+02 0.35809372048E+02 0.35814539012E+02 0.33578589880E+02
 0.29346275765E+02 0.23691787959E+02 0.17561066224E+02 0.12092782310E+02 0.81410956556E+01
 0.57911225939E+01 0.44937781950E+01 0.39485683062E+01 0.39479595359E+01 0.44897877201E+01
 0.57836677910E+01 0.81399659895E+01 0.12110381894E+02 0.17595729822E+02 0.23724521357E+02
 0.39665355234E+02 0.43816106032E+02 0.45311676749E+02 0.43846786002E+02 0.39705446280E+02
 0.33578589880E+02 0.26305420091E+02 0.18893913439E+02 0.12530607922E+02 0.81321814161E+01
 0.57096161998E+01 0.45357462379E+01 0.42031857052E+01 0.45338742230E+01 0.57099145552E+01
 0.81399659895E+01 0.12546621086E+02 0.18909337574E+02 0.26305070998E+02 0.33553676917E+02
 0.50442747902E+02 0.54304945577E+02 0.54301469039E+02 0.50438227506E+02 0.43846786002E+02
 0.35814539012E+02 0.27216177921E+02 0.18914819077E+02 0.12106756951E+02 0.77202464504E+01
 0.55380924371E+01 0.46567965196E+01 0.46573459074E+01 0.55410203566E+01 0.77259779852E+01
 0.12110381894E+02 0.18909337574E+02 0.27201481760E+02 0.35800110573E+02 0.43842344137E+02
 0.61376460323E+02 0.64031668175E+02 0.61287699820E+02 0.54301469039E+02 0.45311676749E+02
 0.35809372048E+02 0.26331692789E+02 0.17605286166E+02 0.10922352493E+02 0.70625432185E+01
 0.53666283768E+01 0.48883715909E+01 0.53614892575E+01 0.70627447516E+01 0.10926472099E+02
 0.17595729822E+02 0.26305070998E+02 0.35800110573E+02 0.45363075840E+02 0.54406800976E+02
 0.70325471161E+02 0.70265864750E+02 0.64031668175E+02 0.54304945577E+02 0.43816106032E+02
 0.33573477003E+02 0.23738747189E+02 0.15192503280E+02 0.93018619767E+01 0.63664922731E+01
 0.52564868758E+01 0.52489771116E+01 0.63561895599E+01 0.93041404555E+01 0.15196989758E+02
 0.23724521357E+02 0.33553676917E+02 0.43842344137E+02 0.54406800976E+02 0.64160732675E+02
 0.70325471161E+02 0.64160732675E+02 0.54406800976E+02 0.43842344137E+02 0.33553676917E+02
 0.23724521357E+02 0.15196989758E+02 0.93041404555E+01 0.63561895599E+01 0.52489771116E+01
 0.52564868758E+01 0.63664922731E+01 0.93018619767E+01 0.15192503280E+02 0.23738747189E+02
 0.33573477003E+02 0.43816106032E+02 0.54304945577E+02 0.64031668175E+02 0.70265864750E+02
 0.64160732675E+02 0.56546707979E+02 0.46865002655E+02 0.36903325188E+02 0.27180611918E+02
 0.18246783024E+02 0.11319992305E+02 0.72606567740E+01 0.54873535870E+01 0.49984935109E+01
 0.54947791128E+01 0.72598598926E+01 0.11314575501E+02 0.18264685776E+02 0.27224369462E+02
 0.36913773154E+02 0.46771375467E+02 0.56363576255E+02 0.64008406842E+02 0.67069209861E+02
 0.54406800976E+02 0.46865002655E+02 0.38076394204E+02 0.28999047143E+02 0.20285596010E+02
 0.13004118223E+02 0.81930635195E+01 0.57981209046E+01 0.48475919286E+01 0.48485747096E+01
 0.57958857448E+01 0.81855492255E+01 0.13007715794E+02 0.20317077185E+02 0.29040117532E+02
 0.38075939557E+02 0.46794165336E+02 0.54306159226E+02 0.58895441692E+02 0.58943183906E+02
 0.43842344137E+02 0.36903325188E+02 0.28999047143E+02 0.21001224192E+02 0.13963035090E+02
 0.89151097386E+01 0.61013416257E+01 0.47825920003E+01 0.44155521804E+01 0.47875855848E+01
 0.60999848381E+01 0.89029464395E+01 0.13953249779E+02 0.21011728449E+02 0.29031543060E+02
 0.36940887986E+02 0.43867615826E+02 0.48799983210E+02 0.50617376070E+02 0.48790081133E+02
 0.33553676917E+02 0.27180611918E+02 0.20285596010E+02 0.13963035090E+02 0.91949512487E+01
 0.63083262469E+01 0.47792900829E+01 0.41462673598E+01 0.41505255741E+01 0.47862019040E+01
 0.63059422672E+01 0.91774040311E+01 0.13938826874E+02 0.20274098019E+02 0.27197700714E+02
 0.33596825826E+02 0.38518696547E+02 0.41202510236E+02 0.41182821374E+02 0.38472746978E+02
 0.23724521357E+02 0.18246783024E+02 0.13004118223E+02 0.89151097386E+01 0.63083262469E+01
 0.47931801594E+01 0.40264649267E+01 0.38038751007E+01 0.40251964988E+01 0.47982759641E+01
 0.63193686983E+01 0.89171483809E+01 0.12983718332E+02 0.18211111277E+02 0.23696479029E+02
 0.28398509077E+02 0.31512135240E+02 0.32590911691E+02 0.31507250233E+02 0.28405388718E+02
 0.15196989758E+02 0.11319992305E+02 0.81930635195E+01 0.61013416257E+01 0.47792900829E+01
 0.40264649267E+01 0.36982564149E+01 0.36942108845E+01 0.40236080367E+01 0.47927695199E+01
 0.61301216466E+01 0.82161888653E+01 0.11315981757E+02 0.15163866174E+02 0.19022032548E+02
 0.22071139107E+02 0.23732640589E+02 0.23745543838E+02 0.22106324894E+02 0.19066792000E+02
 0.93041404555E+01 0.72606567740E+01 0.57981209046E+01 0.47825920003E+01 0.41462673598E+01
 0.38038751007E+01 0.36942108845E+01 0.37988986781E+01 0.41396489307E+01 0.47841680202E+01
 0.58191053518E+01 0.72991219877E+01 0.93388681363E+01 0.11761152659E+02 0.14069235079E+02
 0.15716737313E+02 0.16321698878E+02 0.15741701695E+02 0.14091329109E+02 0.11754205217E+02
 0.63561895599E+01 0.54873535870E+01 0.48475919286E+01 0.44155521804E+01 0.41505255741E+01
 0.40251964988E+01 0.40236080367E+01 0.41396489307E+01 0.43904896345E+01 0.48233841204E+01
 0.54902812131E+01 0.63935528662E+01 0.75021215856E+01 0.87380331580E+01 0.98417302317E+01
 0.10500719653E+02 0.10503955657E+02 0.98388785839E+01 0.87100433810E+01 0.74542172234E+01
 0.52489771116E+01 0.49984935109E+01 0.48485747096E+01 0.47875855848E+01 0.47862019040E+01
 0.47982759641E+01 0.47927695199E+01 0.47841680202E+01 0.48233841204E+01 0.49608614055E+01
 0.52216978532E+01 0.56025363580E+01 0.60675052822E+01 0.65437294534E+01 0.69222698286E+01
 0.70642172066E+01 0.69065051822E+01 0.65190390160E+01 0.60482385293E+01 0.56045176450E+01
 0.52564868758E+01 0.54947791128E+01 0.57958857448E+01 0.60999848381E+01 0.63059422672E+01
 0.63193686983E+01 0.61301216466E+01 0.58191053518E+01 0.54902812131E+01 0.52216978532E+01
 0.50487005792E+01 0.49808994242E+01 0.50083074329E+01 0.50877612298E+01 0.51488665123E+01
 0.51402505502E+01 0.50735855250E+01 0.50115510995E+01 0.50122546963E+01 0.50950343353E+01
 0.63664922731E+01 0.72598598926E+01 0.81855492255E+01 0.89029464395E+01 0.91774040311E+01
 0.89171483809E+01 0.82161888653E+01 0.72991219877E+01 0.63935528662E+01 0.56025363580E+01
 0.49808994242E+01 0.45560063130E+01 0.43024816476E+01 0.41737116134E+01 0.41330271668E+01
 0.41731000353E+01 0.43133757988E+01 0.45824358710E+01 0.50065174366E+01 0.56045176450E+01
 0.93018619767E+01 0.11314575501E+02 0.13007715794E+02 0.13953249779E+02 0.13938826874E+02
 0.12983718332E+02 0.11315981757E+02 0.93388681363E+01 0.75021215856E+01 0.60675052822E+01
 0.50083074329E+01 0.43024816476E+01 0.38884196710E+01 0.36979611827E+01 0.37010253417E+01
 0.38984559564E+01 0.43153712365E+01 0.50083936142E+01 0.60397949838E+01 0.74542172234E+01
 0.15192503280E+02 0.18264685776E+02 0.20317077185E+02 0.21011728449E+02 0.20274098019E+02
 0.18211111277E+02 0.15163866174E+02 0.11761152659E+02 0.87380331580E+01 0.65437294534E+01
 0.50877612298E+01 0.41737116134E+01 0.36979611827E+01 0.35544376955E+01 0.37014466118E+01
 0.41745372088E+01 0.50774356766E+01 0.65195948845E+01 0.87112752742E+01 0.11754205217E+02
 0.23738747189E+02 0.27224369462E+02 0.29040117532E+02 0.29031543060E+02 0.27197700714E+02
 0.23696479029E+02 0.19022032548E+02 0.14069235079E+02 0.98417302317E+01 0.69222698286E+01
 0.51488665123E+01 0.41330271668E+01 0.37010253417E+01 0.37014466118E+01 0.41299094009E+01
 0.51374342040E+01 0.69099266122E+01 0.98452304065E+01 0.14097770767E+02 0.19066792000E+02
 0.33573477003E+02 0.36913773154E+02 0.38075939557E+02 0.36940887986E+02 0.33596825826E+02
 0.28398509077E+02 0.22071139107E+02 0.15716737313E+02 0.10500719653E+02 0.70642172066E+01
 0.51402505502E+01 0.41731000353E+01 0.38984559564E+01 0.41745372088E+01 0.51374342040E+01
 0.70599048492E+01 0.10509185523E+02 0.15744983088E+02 0.22102384250E+02 0.28405388718E+02
 0.43816106032E+02 0.46771375467E+02 0.46794165336E+02 0.43867615826E+02 0.38518696547E+02
 0.31512135240E+02 0.23732640589E+02 0.16321698878E+02 0.10503955657E+02 0.69065051822E+01
 0.50735855250E+01 0.43133757988E+01 0.43153712365E+01 0.50774356766E+01 0.69099266122E+01
 0.10509185523E+02 0.16330188868E+02 0.23735402929E+02 0.31492841097E+02 0.38472746978E+02
 0.54304945577E+02 0.56363576255E+02 0.54306159226E+02 0.48799983210E+02 0.41202510236E+02
 0.32590911691E+02 0.23745543838E+02 0.15741701695E+02 0.98388785839E+01 0.65190390160E+01
 0.50115510995E+01 0.45824358710E+01 0.50083936142E+01 0.65195948845E+01 0.98452304065E+01
 0.15744983088E+02 0.23735402929E+02 0.32568930642E+02 0.41181589708E+02 0.48790081133E+02
 0.64031668175E+02 0.64008406842E+02 0.58895441692E+02 0.50617376070E+02 0.41182821374E+02
 0.31507250233E+02 0.22106324894E+02 0.14091329109E+02 0.87100433810E+01 0.60482385293E+01
 0.50122546963E+01 0.50065174366E+01 0.60397949838E+01 0.87112752742E+01 0.14097770767E+02
 0.22102384250E+02 0.31492841097E+02 0.41181589708E+02 0.50648590297E+02 0.58943183906E+02
 0.70265864750E+02 0.67069209861E+02 0.58943183906E+02 0.48790081133E+02 0.38472746978E+02
 0.28405388718E+02 0.19066792000E+02 0.11754205217E+02 0.74542172234E+01 0.56045176450E+01
 0.50950343353E+01 0.56045176450E+01 0.74542172234E+01 0.11754205217E+02 0.19066792000E+02
 0.28405388718E+02 0.38472746978E+02 0.48790081133E+02 0.58943183906E+02 0.67069209861E+02
 0.61376460323E+02 0.54406800976E+02 0.45363075840E+02 0.35800110573E+02 0.26305070998E+02
 0.17595729822E+02 0.10926472099E+02 0.70627447516E+01 0.53614892575E+01 0.48883715909E+01
 0.53666283768E+01 0.70625432185E+01 0.10922352493E+02 0.17605286166E+02 0.26331692789E+02
 0.35809372048E+02 0.45311676749E+02 0.54301469039E+02 0.61287699820E+02 0.64031668175E+02
 0.54406800976E+02 0.46865002655E+02 0.38076394204E+02 0.28999047143E+02 0.20285596010E+02
 0.13004118223E+02 0.81930635195E+01 0.57981209046E+01 0.48475919286E+01 0.48485747096E+01
 0.57958857448E+01 0.81855492255E+01 0.13007715794E+02 0.20317077185E+02 0.29040117532E+02
 0.38075939557E+02 0.46794165336E+02 0.54306159226E+02 0.58895441692E+02 0.58943183906E+02
 0.45363075840E+02 0.38076394204E+02 0.29917343272E+02 0.21716177697E+02 0.14459169201E+02
 0.91949229959E+01 0.62423854859E+01 0.48723629911E+01 0.44911906932E+01 0.48775965186E+01
 0.62400324249E+01 0.91837933088E+01 0.14459924773E+02 0.21747055296E+02 0.29965966190E+02
 0.38108696076E+02 0.45362104006E+02 0.50633652304E+02 0.52610193591E+02 0.50648590297E+02
 0.35800110573E+02 0.28999047143E+02 0.21716177697E+02 0.14978758121E+02 0.97912110580E+01
 0.66021273889E+01 0.49424206837E+01 0.42586430321E+01 0.42637621961E+01 0.49497818881E+01
 0.65974280802E+01 0.97722016246E+01 0.14962456527E+02 0.21727263012E+02 0.29049625268E+02
 0.35877201611E+02 0.41251702914E+02 0.44249497345E+02 0.44221215878E+02 0.41181589708E+02
 0.26305070998E+02 0.20285596010E+02 0.14459169201E+02 0.97912110580E+01 0.67460494718E+01
 0.50116139497E+01 0.41404108787E+01 0.38933348498E+01 0.41418287245E+01 0.50144208974E+01
 0.67438228254E+01 0.97742336156E+01 0.14430882680E+02 0.20270902476E+02 0.26330213659E+02
 0.31552279859E+02 0.35059168962E+02 0.36273662172E+02 0.35008119476E+02 0.31492841097E+02
 0.17595729822E+02 0.13004118223E+02 0.91949229959E+01 0.66021273889E+01 0.50116139497E+01
 0.41090405463E+01 0.37254896440E+01 0.37216954087E+01 0.41059433959E+01 0.50207909386E+01
 0.66176938993E+01 0.91961011203E+01 0.12980321066E+02 0.17561317139E+02 0.22080597444E+02
 0.25630944646E+02 0.27559009225E+02 0.27556964857E+02 0.25634163076E+02 0.22102384250E+02
 0.10926472099E+02 0.81930635195E+01 0.62423854859E+01 0.49424206837E+01 0.41404108787E+01
 0.37254896440E+01 0.35955807449E+01 0.37196969055E+01 0.41408991435E+01 0.49593722502E+01
 0.62710534787E+01 0.82153103706E+01 0.10925343005E+02 0.14071336256E+02 0.16996711808E+02
 0.19044531245E+02 0.19784702481E+02 0.19070467829E+02 0.17033643589E+02 0.14097770767E+02
 0.70627447516E+01 0.57981209046E+01 0.48723629911E+01 0.42586430321E+01 0.38933348498E+01
 0.37216954087E+01 0.37196969055E+01 0.38863819035E+01 0.42493597487E+01 0.48725868943E+01
 0.58196732564E+01 0.71005525790E+01 0.87424628622E+01 0.10548836994E+02 0.12111528090E+02
 0.13021705241E+02 0.13030635674E+02 0.12125035362E+02 0.10543034464E+02 0.87112752742E+01
 0.53614892575E+01 0.48475919286E+01 0.44911906932E+01 0.42637621961E+01 0.41418287245E+01
 0.41059433959E+01 0.41408991435E+01 0.42493597487E+01 0.44613253083E+01 0.48227845055E+01
 0.53655253224E+01 0.60724138239E+01 0.68793578971E+01 0.76987563052E+01 0.83346726189E+01
 0.85769696397E+01 0.83303810101E+01 0.76786081533E+01 0.68424081730E+01 0.60397949838E+01
 0.48883715909E+01 0.48485747096E+01 0.48775965186E+01 0.49497818881E+01 0.50144208974E+01
 0.50207909386E+01 0.49593722502E+01 0.48725868943E+01 0.48227845055E+01 0.48543812877E+01
 0.49837070967E+01 0.52056105755E+01 0.54885386812E+01 0.57621835111E+01 0.59314874248E+01
 0.59251226328E+01 0.57470142853E+01 0.54754672382E+01 0.52077238619E+01 0.50065174366E+01
 0.53666283768E+01 0.57958857448E+01 0.62400324249E+01 0.65974280802E+01 0.67438228254E+01
 0.66176938993E+01 0.62710534787E+01 0.58196732564E+01 0.53655253224E+01 0.49837070967E+01
 0.47115898539E+01 0.45572032555E+01 0.45009938303E+01 0.44970478634E+01 0.44970969741E+01
 0.44878961650E+01 0.45008003976E+01 0.45801201592E+01 0.47494962215E+01 0.50122546963E+01
 0.70625432185E+01 0.81855492255E+01 0.91837933088E+01 0.97722016246E+01 0.97742336156E+01
 0.91961011203E+01 0.82153103706E+01 0.71005525790E+01 0.60724138239E+01 0.52056105755E+01
 0.45572032555E+01 0.41306516858E+01 0.38823029254E+01 0.37676363634E+01 0.37668455581E+01
 0.38857682778E+01 0.41454346390E+01 0.45754945959E+01 0.52077238619E+01 0.60482385293E+01
 0.10922352493E+02 0.13007715794E+02 0.14459924773E+02 0.14962456527E+02 0.14430882680E+02
 0.12980321066E+02 0.10925343005E+02 0.87424628622E+01 0.68793578971E+01 0.54885386812E+01
 0.45009938303E+01 0.38823029254E+01 0.35513671445E+01 0.34488601564E+01 0.35567483573E+01
 0.38895417709E+01 0.45002551545E+01 0.54687147709E+01 0.68424081730E+01 0.87100433810E+01
 0.17605286166E+02 0.20317077185E+02 0.21747055296E+02 0.21727263012E+02 0.20270902476E+02
 0.17561317139E+02 0.14071336256E+02 0.10548836994E+02 0.76987563052E+01 0.57621835111E+01
 0.44970478634E+01 0.37676363634E+01 0.34488601564E+01 0.34505047332E+01 0.37693006593E+01
 0.44920007894E+01 0.57473770605E+01 0.76808078650E+01 0.10543034464E+02 0.14091329109E+02
 0.26331692789E+02 0.29040117532E+02 0.29965966190E+02 0.29049625268E+02 0.26330213659E+02
 0.22080597444E+02 0.16996711808E+02 0.12111528090E+02 0.83346726189E+01 0.59314874248E+01
 0.44970969741E+01 0.37668455581E+01 0.35567483573E+01 0.37693006593E+01 0.44933500091E+01
 0.59216032965E+01 0.83344024925E+01 0.12134424263E+02 0.17033643589E+02 0.22106324894E+02
 0.35809372048E+02 0.38075939557E+02 0.38108696076E+02 0.35877201611E+02 0.31552279859E+02
 0.25630944646E+02 0.19044531245E+02 0.13021705241E+02 0.85769696397E+01 0.59251226328E+01
 0.44878961650E+01 0.38857682778E+01 0.38895417709E+01 0.44920007894E+01 0.59216032965E+01
 0.85754189423E+01 0.13038428007E+02 0.19072129255E+02 0.25634163076E+02 0.31507250233E+02
 0.45311676749E+02 0.46794165336E+02 0.45362104006E+02 0.41251702914E+02 0.35059168962E+02
 0.27559009225E+02 0.19784702481E+02 0.13030635674E+02 0.83303810101E+01 0.57470142853E+01
 0.45008003976E+01 0.41454346390E+01 0.45002551545E+01 0.57473770605E+01 0.83344024925E+01
 0.13038428007E+02 0.19787417807E+02 0.27539852502E+02 0.35008119476E+02 0.41182821374E+02
 0.54301469039E+02 0.54306159226E+02 0.50633652304E+02 0.44249497345E+02 0.36273662172E+02
 0.27556964857E+02 0.19070467829E+02 0.12125035362E+02 0.76786081533E+01 0.54754672382E+01
 0.45801201592E+01 0.45754945959E+01 0.54687147709E+01 0.76808078650E+01 0.12134424263E+02
 0.19072129255E+02 0.27539852502E+02 0.36243255255E+02 0.44221215878E+02 0.50617376070E+02
 0.61287699820E+02 0.58895441692E+02 0.52610193591E+02 0.44221215878E+02 0.35008119476E+02
 0.25634163076E+02 0.17033643589E+02 0.10543034464E+02 0.68424081730E+01 0.52077238619E+01
 0.47494962215E+01 0.52077238619E+01 0.68424081730E+01 0.10543034464E+02 0.17033643589E+02
 0.25634163076E+02 0.35008119476E+02 0.44221215878E+02 0.52610193591E+02 0.58895441692E+02
 0.64031668175E+02 0.58943183906E+02 0.50648590297E+02 0.41181589708E+02 0.31492841097E+02
 0.22102384250E+02 0.14097770767E+02 0.87112752742E+01 0.60397949838E+01 0.50065174366E+01
 0.50122546963E+01 0.60482385293E+01 0.87100433810E+01 0.14091329109E+02 0.22106324894E+02
 0.31507250233E+02 0.41182821374E+02 0.50617376070E+02 0.58895441692E+02 0.64008406842E+02
 0.50442747902E+02 0.43842344137E+02 0.35800110573E+02 0.27201481760E+02 0.18909337574E+02
 0.12110381894E+02 0.77259779852E+01 0.55410203566E+01 0.46573459074E+01 0.46567965196E+01
 0.55380924371E+01 0.77202464504E+01 0.12106756951E+02 0.18914819077E+02 0.27216177921E+02
 0.35814539012E+02 0.43846786002E+02 0.50438227506E+02 0.54301469039E+02 0.54304945577E+02
 0.43842344137E+02 0.36903325188E+02 0.28999047143E+02 0.21001224192E+02 0.13963035090E+02
 0.89151097386E+01 0.61013416257E+01 0.47825920003E+01 0.44155521804E+01 0.47875855848E+01
 0.60999848381E+01 0.89029464395E+01 0.13953249779E+02 0.21011728449E+02 0.29031543060E+02
 0.36940887986E+02 0.43867615826E+02 0.48799983210E+02 0.50617376070E+02 0.48790081133E+02
 0.35800110573E+02 0.28999047143E+02 0.21716177697E+02 0.14978758121E+02 0.97912110580E+01
 0.66021273889E+01 0.49424206837E+01 0.42586430321E+01 0.42637621961E+01 0.49497818881E+01
 0.65974280802E+01 0.97722016246E+01 0.14962456527E+02 0.21727263012E+02 0.29049625268E+02
 0.35877201611E+02 0.41251702914E+02 0.44249497345E+02 0.44221215878E+02 0.41181589708E+02
 0.27201481760E+02 0.21001224192E+02 0.14978758121E+02 0.10107935301E+02 0.69028839047E+01
 0.50899362301E+01 0.41834175708E+01 0.39271005746E+01 0.41841666068E+01 0.50928095274E+01
 0.69005805761E+01 0.10087908030E+02 0.14946306052E+02 0.20991278586E+02 0.27249766223E+02
 0.32664758349E+02 0.36322636585E+02 0.37585709388E+02 0.36243255255E+02 0.32568930642E+02
 0.18909337574E+02 0.13963035090E+02 0.97912110580E+01 0.69028839047E+01 0.51479900577E+01
 0.41593474298E+01 0.37463497487E+01 0.37429987850E+01 0.41572298557E+01 0.51551594544E+01
 0.69062591740E+01 0.97686721839E+01 0.13919063010E+02 0.18882636184E+02 0.23757467936E+02
 0.27591913191E+02 0.29670725189E+02 0.29643436953E+02 0.27539852502E+02 0.23735402929E+02
 0.12110381894E+02 0.89151097386E+01 0.66021273889E+01 0.50899362301E+01 0.41593474298E+01
 0.36884616721E+01 0.35451980526E+01 0.36830947931E+01 0.41607128212E+01 0.51034951135E+01
 0.66152442888E+01 0.89095206482E+01 0.12083270200E+02 0.15712028189E+02 0.19049943855E+02
 0.21369634135E+02 0.22196936157E+02 0.21378074708E+02 0.19072129255E+02 0.15744983088E+02
 0.77259779852E+01 0.61013416257E+01 0.49424206837E+01 0.41834175708E+01 0.37463497487E+01
 0.35451980526E+01 0.35411768373E+01 0.37396194062E+01 0.41850931828E+01 0.49588245712E+01
 0.61265899318E+01 0.77443419357E+01 0.98425705722E+01 0.12110455330E+02 0.14031401693E+02
 0.15132625291E+02 0.15145611351E+02 0.14060562060E+02 0.12134424263E+02 0.98452304065E+01
 0.55410203566E+01 0.47825920003E+01 0.42586430321E+01 0.39271005746E+01 0.37429987850E+01
 0.36830947931E+01 0.37396194062E+01 0.39178401622E+01 0.42475084708E+01 0.47821141004E+01
 0.55596472038E+01 0.65490703159E+01 0.77020964076E+01 0.88580017267E+01 0.97296837583E+01
 0.10058240607E+02 0.97351946142E+01 0.88546685373E+01 0.76808078650E+01 0.65195948845E+01
 0.46573459074E+01 0.44155521804E+01 0.42637621961E+01 0.41841666068E+01 0.41572298557E+01
 0.41607128212E+01 0.41850931828E+01 0.42475084708E+01 0.43854141617E+01 0.46353763047E+01
 0.50119778286E+01 0.54923580726E+01 0.60088260818E+01 0.64672281050E+01 0.67472032504E+01
 0.67444053507E+01 0.64549756129E+01 0.59848413220E+01 0.54687147709E+01 0.50083936142E+01
 0.46567965196E+01 0.47875855848E+01 0.49497818881E+01 0.50928095274E+01 0.51551594544E+01
 0.51034951135E+01 0.49588245712E+01 0.47821141004E+01 0.46353763047E+01 0.45561524641E+01
 0.45582770524E+01 0.46375586127E+01 0.47649170935E+01 0.48824505126E+01 0.49273154341E+01
 0.48744298439E+01 0.47567525429E+01 0.46396638263E+01 0.45754945959E+01 0.45824358710E+01
 0.55380924371E+01 0.60999848381E+01 0.65974280802E+01 0.69005805761E+01 0.69062591740E+01
 0.66152442888E+01 0.61265899318E+01 0.55596472038E+01 0.50119778286E+01 0.45582770524E+01
 0.42325590057E+01 0.40328393547E+01 0.39305869279E+01 0.38881530836E+01 0.38840716143E+01
 0.39272884100E+01 0.40448518209E+01 0.42589710727E+01 0.45801201592E+01 0.50115510995E+01
 0.77202464504E+01 0.89029464395E+01 0.97722016246E+01 0.10087908030E+02 0.97686721839E+01
 0.89095206482E+01 0.77443419357E+01 0.65490703159E+01 0.54923580726E+01 0.46375586127E+01
 0.40328393547E+01 0.36521582666E+01 0.34445035427E+01 0.33771831363E+01 0.34442367271E+01
 0.36574079712E+01 0.40427754557E+01 0.46396638263E+01 0.54754672382E+01 0.65190390160E+01
 0.12106756951E+02 0.13953249779E+02 0.14962456527E+02 0.14946306052E+02 0.13919063010E+02
 0.12083270200E+02 0.98425705722E+01 0.77020964076E+01 0.60088260818E+01 0.47649170935E+01
 0.39305869279E+01 0.34445035427E+01 0.32241045632E+01 0.32258691484E+01 0.34479722563E+01
 0.39299934577E+01 0.47529805452E+01 0.59848413220E+01 0.76786081533E+01 0.98388785839E+01
 0.18914819077E+02 0.21011728449E+02 0.21727263012E+02 0.20991278586E+02 0.18882636184E+02
 0.15712028189E+02 0.12110455330E+02 0.88580017267E+01 0.64672281050E+01 0.48824505126E+01
 0.38881530836E+01 0.33771831363E+01 0.32258691484E+01 0.33807813174E+01 0.38879867682E+01
 0.48734923539E+01 0.64547912270E+01 0.88546685373E+01 0.12125035362E+02 0.15741701695E+02
 0.27216177921E+02 0.29031543060E+02 0.29049625268E+02 0.27249766223E+02 0.23757467936E+02
 0.19049943855E+02 0.14031401693E+02 0.97296837583E+01 0.67472032504E+01 0.49273154341E+01
 0.38840716143E+01 0.34442367271E+01 0.34479722563E+01 0.38879867682E+01 0.49225159146E+01
 0.67417515784E+01 0.97414296196E+01 0.14060562060E+02 0.19070467829E+02 0.23745543838E+02
 0.35814539012E+02 0.36940887986E+02 0.35877201611E+02 0.32664758349E+02 0.27591913191E+02
 0.21369634135E+02 0.15132625291E+02 0.10058240607E+02 0.67444053507E+01 0.48744298439E+01
 0.39272884100E+01 0.36574079712E+01 0.39299934577E+01 0.48734923539E+01 0.67417515784E+01
 0.10066333015E+02 0.15153340716E+02 0.21378074708E+02 0.27556964857E+02 0.32590911691E+02
 0.43846786002E+02 0.43867615826E+02 0.41251702914E+02 0.36322636585E+02 0.29670725189E+02
 0.22196936157E+02 0.15145611351E+02 0.97351946142E+01 0.64549756129E+01 0.47567525429E+01
 0.40448518209E+01 0.40427754557E+01 0.47529805452E+01 0.64547912270E+01 0.97414296196E+01
 0.15153340716E+02 0.22193265086E+02 0.29643436953E+02 0.36273662172E+02 0.41202510236E+02
 0.50438227506E+02 0.48799983210E+02 0.44249497345E+02 0.37585709388E+02 0.29643436953E+02
 0.21378074708E+02 0.14060562060E+02 0.88546685373E+01 0.59848413220E+01 0.46396638263E+01
 0.42589710727E+01 0.46396638263E+01 0.59848413220E+01 0.88546685373E+01 0.14060562060E+02
 0.21378074708E+02 0.29643436953E+02 0.37585709388E+02 0.44249497345E+02 0.48799983210E+02
 0.54301469039E+02 0.50617376070E+02 0.44221215878E+02 0.36243255255E+02 0.27539852502E+02
 0.19072129255E+02 0.12134424263E+02 0.76808078650E+01 0.54687147709E+01 0.45754945959E+01
 0.45801201592E+01 0.54754672382E+01 0.76786081533E+01 0.12125035362E+02 0.19070467829E+02
 0.27556964857E+02 0.36273662172E+02 0.44249497345E+02 0.50633652304E+02 0.54306159226E+02
 0.54304945577E+02 0.48790081133E+02 0.41181589708E+02 0.32568930642E+02 0.23735402929E+02
 0.15744983088E+02 0.98452304065E+01 0.65195948845E+01 0.50083936142E+01 0.45824358710E+01
 0.50115510995E+01 0.65190390160E+01 0.98388785839E+01 0.15741701695E+02 0.23745543838E+02
 0.32590911691E+02 0.41202510236E+02 0.48799983210E+02 0.54306159226E+02 0.56363576255E+02
 0.39665355234E+02 0.33553676917E+02 0.26305070998E+02 0.18909337574E+02 0.12546621086E+02
 0.81399659895E+01 0.57099145552E+01 0.45338742230E+01 0.42031857052E+01 0.45357462379E+01
 0.57096161998E+01 0.81321814161E+01 0.12530607922E+02 0.18893913439E+02 0.26305420091E+02
 0.33578589880E+02 0.39705446280E+02 0.43846786002E+02 0.45311676749E+02 0.43816106032E+02
 0.33553676917E+02 0.27180611918E+02 0.20285596010E+02 0.13963035090E+02 0.91949512487E+01
 0.63083262469E+01 0.47792900829E+01 0.41462673598E+01 0.41505255741E+01 0.47862019040E+01