   1   1   0   0
  0.1540747E+02  0.2793072E-09  0.2793072E-09  0.2793072E-09  0.5000000E-15
  1.000000000000000E-004
  CAR 
 FCC Au                                  
     39.86912584     -6.08328743  301      7.01349554      1.00000000
     -6.083  0.0000E+00  0.0000E+00
     -5.930  0.0000E+00  0.0000E+00
     -5.777  0.0000E+00  0.0000E+00
     -5.624 -0.9095E-30 -0.1393E-30
     -5.471 -0.1203E-24 -0.1843E-25
     -5.317 -0.4869E-20 -0.7458E-21
     -5.164 -0.5871E-16 -0.8994E-17
     -5.011 -0.2174E-12 -0.3331E-13
     -4.858 -0.2432E-09 -0.3728E-10
     -4.705 -0.8052E-07 -0.1237E-07
     -4.552 -0.7638E-05 -0.1182E-05
     -4.398 -0.1898E-03 -0.3025E-04
     -4.245 -0.8082E-03 -0.1541E-03
     -4.092  0.3300E-02  0.3514E-03
     -3.939  0.1449E-01  0.2571E-02
     -3.786  0.3249E-01  0.7547E-02
     -3.632  0.4976E-01  0.1517E-01
     -3.479  0.4919E-01  0.2270E-01
     -3.326  0.5361E-01  0.3092E-01
     -3.173  0.7056E-01  0.4172E-01
     -3.020  0.9749E-01  0.5666E-01
     -2.867  0.9242E-01  0.7081E-01
     -2.713  0.5761E-01  0.7964E-01
     -2.560  0.9419E-01  0.9407E-01
     -2.407  0.1587E+00  0.1184E+00
     -2.254  0.1460E+00  0.1407E+00
     -2.101  0.9323E-01  0.1550E+00
     -1.948  0.1520E+00  0.1783E+00
     -1.794  0.1966E+00  0.2084E+00
     -1.641  0.1708E+00  0.2346E+00
     -1.488  0.2586E+00  0.2742E+00
     -1.335  0.4370E+00  0.3411E+00
     -1.182  0.5955E+00  0.4323E+00
     -1.029  0.6326E+00  0.5292E+00
     -0.875  0.9366E+00  0.6727E+00
     -0.722  0.1179E+01  0.8533E+00
     -0.569  0.1466E+01  0.1078E+01
     -0.416  0.1614E+01  0.1325E+01
     -0.263  0.1599E+01  0.1570E+01
     -0.109  0.1619E+01  0.1818E+01
      0.044  0.1319E+01  0.2020E+01
      0.197  0.1407E+01  0.2236E+01
      0.350  0.1271E+01  0.2430E+01
      0.503  0.9123E+00  0.2570E+01
      0.656  0.1256E+01  0.2762E+01
      0.810  0.1540E+01  0.2998E+01
      0.963  0.1600E+01  0.3243E+01
      1.116  0.1583E+01  0.3486E+01
      1.269  0.1495E+01  0.3715E+01
      1.422  0.1835E+01  0.3996E+01
      1.575  0.1889E+01  0.4285E+01
      1.729  0.1839E+01  0.4567E+01
      1.882  0.2123E+01  0.4892E+01
      2.035  0.2797E+01  0.5320E+01
      2.188  0.2577E+01  0.5715E+01
      2.341  0.1721E+01  0.5979E+01
      2.494  0.1347E+01  0.6185E+01
      2.648  0.1250E+01  0.6376E+01
      2.801  0.1407E+01  0.6592E+01
      2.954  0.1352E+01  0.6799E+01
      3.107  0.1681E+01  0.7057E+01
      3.260  0.1853E+01  0.7340E+01
      3.414  0.1666E+01  0.7596E+01
      3.567  0.1373E+01  0.7806E+01
      3.720  0.1732E+01  0.8071E+01
      3.873  0.1565E+01  0.8311E+01
      4.026  0.9422E+00  0.8455E+01
      4.179  0.1379E+01  0.8667E+01
      4.333  0.1553E+01  0.8904E+01
      4.486  0.1222E+01  0.9091E+01
      4.639  0.1718E+01  0.9355E+01
      4.792  0.2174E+01  0.9688E+01
      4.945  0.2147E+01  0.1002E+02
      5.098  0.1791E+01  0.1029E+02
      5.252  0.1247E+01  0.1048E+02
      5.405  0.8347E+00  0.1061E+02
      5.558  0.1784E+00  0.1064E+02
      5.711 -0.5751E-02  0.1064E+02
      5.864  0.1362E+00  0.1066E+02
      6.018  0.4113E+00  0.1072E+02
      6.171  0.4862E+00  0.1079E+02
      6.324  0.2740E+00  0.1084E+02
      6.477  0.1302E+00  0.1086E+02
      6.630  0.2122E+00  0.1089E+02
      6.783  0.3249E+00  0.1094E+02
      6.937  0.2792E+00  0.1098E+02
      7.090  0.2467E+00  0.1102E+02
      7.243  0.2473E+00  0.1106E+02
      7.396  0.1437E+00  0.1108E+02
      7.549  0.2698E+00  0.1112E+02
      7.702  0.4177E+00  0.1118E+02
      7.856  0.3813E+00  0.1124E+02
      8.009  0.2410E+00  0.1128E+02
      8.162  0.1853E+00  0.1131E+02
      8.315  0.1465E+00  0.1133E+02
      8.468  0.1482E+00  0.1135E+02
      8.621  0.2912E+00  0.1140E+02
      8.775  0.3956E+00  0.1146E+02
      8.928  0.2979E+00  0.1150E+02
      9.081  0.2033E+00  0.1154E+02
      9.234  0.2034E+00  0.1157E+02
      9.387  0.1428E+00  0.1159E+02
      9.541  0.2320E+00  0.1162E+02
      9.694  0.3138E+00  0.1167E+02
      9.847  0.1848E+00  0.1170E+02
     10.000  0.2626E+00  0.1174E+02
     10.153  0.1938E+00  0.1177E+02
     10.306  0.7006E-01  0.1178E+02
     10.460  0.2170E+00  0.1181E+02
     10.613  0.4873E+00  0.1189E+02
     10.766  0.5813E+00  0.1198E+02
     10.919  0.2971E+00  0.1202E+02
     11.072  0.1931E+00  0.1205E+02
     11.225  0.2145E+00  0.1209E+02
     11.379  0.3512E+00  0.1214E+02
     11.532  0.4066E+00  0.1220E+02
     11.685  0.3369E+00  0.1225E+02
     11.838  0.2672E+00  0.1229E+02
     11.991  0.1322E+00  0.1231E+02
     12.145  0.1669E+00  0.1234E+02
     12.298  0.3789E+00  0.1240E+02
     12.451  0.3883E+00  0.1246E+02
     12.604  0.3090E+00  0.1250E+02
     12.757  0.2554E+00  0.1254E+02
     12.910  0.2256E+00  0.1258E+02
     13.064  0.4329E+00  0.1264E+02
     13.217  0.4719E+00  0.1272E+02
     13.370  0.2159E+00  0.1275E+02
     13.523  0.3108E+00  0.1280E+02
     13.676  0.3242E+00  0.1285E+02
     13.829  0.2638E+00  0.1289E+02
     13.983  0.1953E+00  0.1292E+02
     14.136  0.4088E+00  0.1298E+02
     14.289  0.4736E+00  0.1305E+02
     14.442  0.1454E+00  0.1308E+02
     14.595  0.6752E-01  0.1309E+02
     14.748  0.1495E+00  0.1311E+02
     14.902  0.3362E+00  0.1316E+02
     15.055  0.3193E+00  0.1321E+02
     15.208  0.2557E+00  0.1325E+02
     15.361  0.4998E+00  0.1332E+02
     15.514  0.5877E+00  0.1341E+02
     15.668  0.5191E+00  0.1349E+02
     15.821  0.4135E+00  0.1356E+02
     15.974  0.7604E-01  0.1357E+02
     16.127  0.3847E-01  0.1358E+02
     16.280  0.3109E+00  0.1362E+02
     16.433  0.4333E+00  0.1369E+02
     16.587  0.2986E+00  0.1373E+02
     16.740  0.3165E+00  0.1378E+02
     16.893  0.4237E+00  0.1385E+02
     17.046  0.4249E+00  0.1391E+02
     17.199  0.3715E+00  0.1397E+02
     17.352  0.4043E+00  0.1403E+02
     17.506  0.5248E+00  0.1411E+02
     17.659  0.4819E+00  0.1419E+02
     17.812  0.4713E+00  0.1426E+02
     17.965  0.4372E+00  0.1433E+02
     18.118  0.3118E+00  0.1437E+02
     18.271  0.4970E+00  0.1445E+02
     18.425  0.6497E+00  0.1455E+02
     18.578  0.5047E+00  0.1463E+02
     18.731  0.2299E+00  0.1466E+02
     18.884  0.2177E+00  0.1469E+02
     19.037  0.4359E+00  0.1476E+02
     19.191  0.6997E+00  0.1487E+02
     19.344  0.6317E+00  0.1497E+02
     19.497  0.6400E+00  0.1506E+02
     19.650  0.5949E+00  0.1515E+02
     19.803  0.3565E+00  0.1521E+02
     19.956  0.1802E+00  0.1524E+02
     20.110  0.2929E+00  0.1528E+02
     20.263  0.5997E+00  0.1537E+02
     20.416  0.6044E+00  0.1547E+02
     20.569  0.3661E+00  0.1552E+02
     20.722  0.3459E+00  0.1558E+02
     20.875  0.5025E+00  0.1565E+02
     21.029  0.4882E+00  0.1573E+02
     21.182  0.5688E+00  0.1581E+02
     21.335  0.5674E+00  0.1590E+02
     21.488  0.4387E+00  0.1597E+02
     21.641  0.6083E+00  0.1606E+02
     21.795  0.8036E+00  0.1618E+02
     21.948  0.6786E+00  0.1629E+02
     22.101  0.5956E+00  0.1638E+02
     22.254  0.6653E+00  0.1648E+02
     22.407  0.4133E+00  0.1654E+02
     22.560  0.2143E+00  0.1658E+02
     22.714  0.4452E+00  0.1665E+02
     22.867  0.7131E+00  0.1676E+02
     23.020  0.5186E+00  0.1683E+02
     23.173  0.6056E+00  0.1693E+02
     23.326  0.8546E+00  0.1706E+02
     23.479  0.8219E+00  0.1718E+02
     23.633  0.6208E+00  0.1728E+02
     23.786  0.2993E+00  0.1733E+02
     23.939  0.3680E+00  0.1738E+02
     24.092  0.4237E+00  0.1745E+02
     24.245  0.3106E+00  0.1749E+02
     24.398  0.2978E+00  0.1754E+02
     24.552  0.2978E+00  0.1759E+02
     24.705  0.3187E+00  0.1763E+02
     24.858  0.5541E+00  0.1772E+02
     25.011  0.7937E+00  0.1784E+02
     25.164  0.7677E+00  0.1796E+02
     25.318  0.6698E+00  0.1806E+02
     25.471  0.6399E+00  0.1816E+02
     25.624  0.6151E+00  0.1825E+02
     25.777  0.7395E+00  0.1837E+02
     25.930  0.7110E+00  0.1848E+02
     26.083  0.8414E+00  0.1860E+02
     26.237  0.9586E+00  0.1875E+02
     26.390  0.8279E+00  0.1888E+02
     26.543  0.5984E+00  0.1897E+02
     26.696  0.3818E+00  0.1903E+02
     26.849  0.3916E+00  0.1909E+02
     27.002  0.8383E+00  0.1922E+02
     27.156  0.9243E+00  0.1936E+02
     27.309  0.6090E+00  0.1945E+02
     27.462  0.3658E+00  0.1951E+02
     27.615  0.4232E+00  0.1957E+02
     27.768  0.4796E+00  0.1965E+02
     27.921  0.5167E+00  0.1972E+02
     28.075  0.6932E+00  0.1983E+02
     28.228  0.4987E+00  0.1991E+02
     28.381  0.3574E+00  0.1996E+02
     28.534  0.3855E+00  0.2002E+02
     28.687  0.3406E+00  0.2007E+02
     28.841  0.2747E+00  0.2012E+02
     28.994  0.2960E+00  0.2016E+02
     29.147  0.3522E+00  0.2021E+02
     29.300  0.5362E+00  0.2030E+02
     29.453  0.5715E+00  0.2038E+02
     29.606  0.3098E+00  0.2043E+02
     29.760  0.2356E+00  0.2047E+02
     29.913  0.1698E+00  0.2049E+02
     30.066  0.2631E+00  0.2053E+02
     30.219  0.4944E+00  0.2061E+02
     30.372  0.4524E+00  0.2068E+02
     30.525  0.4039E+00  0.2074E+02
     30.679  0.3534E+00  0.2079E+02
     30.832  0.4798E+00  0.2087E+02
     30.985  0.9441E+00  0.2101E+02
     31.138  0.6772E+00  0.2112E+02
     31.291  0.1228E+00  0.2114E+02
     31.445  0.4901E-01  0.2114E+02
     31.598  0.3360E+00  0.2119E+02
     31.751  0.5082E+00  0.2127E+02
     31.904  0.5160E+00  0.2135E+02
     32.057  0.5579E+00  0.2144E+02
     32.210  0.5589E+00  0.2152E+02
     32.364  0.5236E+00  0.2160E+02
     32.517  0.4554E+00  0.2167E+02
     32.670  0.6887E+00  0.2178E+02
     32.823  0.8580E+00  0.2191E+02
     32.976  0.5492E+00  0.2199E+02
     33.129  0.4627E+00  0.2206E+02
     33.283  0.5763E+00  0.2215E+02
     33.436  0.6639E+00  0.2225E+02
     33.589  0.6923E+00  0.2236E+02
     33.742  0.7542E+00  0.2248E+02
     33.895  0.7736E+00  0.2259E+02
     34.048  0.5752E+00  0.2268E+02
     34.202  0.5303E+00  0.2276E+02
     34.355  0.8147E+00  0.2289E+02
     34.508  0.7446E+00  0.2300E+02
     34.661  0.5729E+00  0.2309E+02
     34.814  0.6436E+00  0.2319E+02
     34.968  0.8584E+00  0.2332E+02
     35.121  0.6807E+00  0.2342E+02
     35.274  0.4458E+00  0.2349E+02
     35.427  0.6772E+00  0.2360E+02
     35.580  0.4666E+00  0.2367E+02
     35.733  0.1923E+00  0.2370E+02
     35.887  0.2345E+00  0.2373E+02
     36.040  0.1986E+00  0.2376E+02
     36.193  0.1004E+00  0.2378E+02
     36.346  0.1180E+00  0.2380E+02
     36.499  0.3404E+00  0.2385E+02
     36.652  0.4018E+00  0.2391E+02
     36.806  0.2889E+00  0.2396E+02
     36.959  0.7363E-01  0.2397E+02
     37.112 -0.1475E-01  0.2396E+02
     37.265 -0.4515E-03  0.2396E+02
     37.418  0.3544E-01  0.2397E+02
     37.572  0.5320E-01  0.2398E+02
     37.725  0.7364E-01  0.2399E+02
     37.878  0.6353E-01  0.2400E+02
     38.031  0.1149E-01  0.2400E+02
     38.184 -0.2997E-02  0.2400E+02
     38.337 -0.6068E-03  0.2400E+02
     38.491 -0.2343E-04  0.2400E+02
     38.644 -0.2435E-06  0.2400E+02
     38.797 -0.7317E-09  0.2400E+02
     38.950 -0.6530E-12  0.2400E+02
     39.103 -0.1740E-15  0.2400E+02
     39.256  0.0000E+00  0.2400E+02
     39.410  0.0000E+00  0.2400E+02
     39.563  0.0000E+00  0.2400E+02
     39.716  0.0000E+00  0.2400E+02
     39.869  0.0000E+00  0.2400E+02
