    1    1    1    1
  0.1540747E+02  0.2793072E-09  0.2793072E-09  0.2793072E-09  0.5000000E-15
  1.000000000000000E-004
  CAR 
 FCC Au                                  
     11    110     12
 
  0.5000000E-01  0.5000000E-01  0.5000000E-01  0.2000000E-02
    1       -3.994541   1.000000
    2        1.625123   1.000000
    3        1.697832   1.000000
    4        1.697832   1.000000
    5        3.479628   1.000000
    6        3.479628   1.000000
    7       22.384534   0.000000
    8       26.028891   0.000000
    9       26.837773   0.000000
   10       26.837773   0.000000
   11       31.888094   0.000000
   12       35.779593   0.000000
 
  0.1500000E+00  0.5000000E-01  0.5000000E-01  0.6000000E-02
    1       -3.496993   1.000000
    2        1.438806   1.000000
    3        1.858248   1.000000
    4        1.894842   1.000000
    5        3.298146   1.000000
    6        3.535756   1.000000
    7       22.904214   0.000000
    8       24.007185   0.000000
    9       26.604352   0.000000
   10       27.867731   0.000000
   11       31.755334   0.000000
   12       34.526136   0.000000
 
  0.2500000E+00  0.5000000E-01  0.5000000E-01  0.6000000E-02
    1       -2.432584   1.000000
    2        1.291527   1.000000
    3        2.032497   1.000000
    4        2.060572   1.000000
    5        3.304214   1.000000
    6        3.785794   1.000000
    7       20.306287   0.000000
    8       23.584987   0.000000
    9       27.050694   0.000000
   10       29.365298   0.000000
   11       29.494962   0.000000
   12       32.241683   0.000000
 
  0.3500000E+00  0.5000000E-01  0.5000000E-01  0.6000000E-02
    1       -1.517612   1.000000
    2        1.817456   1.000000
    3        1.923215   1.000000
    4        2.038855   1.000000
    5        3.886525   1.000000
    6        4.455788   1.000000
    7       16.245226   0.000000
    8       22.810582   0.000000
    9       26.153312   0.000000
   10       28.536481   0.000000
   11       30.575222   0.000000
   12       31.913716   0.000000
 
  0.4500000E+00  0.5000000E-01  0.5000000E-01  0.6000000E-02
    1       -1.316388   1.000000
    2        1.641460   1.000000
    3        1.724338   1.000000
    4        3.712942   1.000000
    5        4.600023   1.000000
    6        5.377139   1.000000
    7       12.340712  -0.000000
    8       21.909290   0.000000
    9       25.062201   0.000000
   10       26.227284   0.000000
   11       32.738754   0.000000
   12       33.177753   0.000000
 
 -0.4500000E+00  0.5000000E-01  0.5000000E-01  0.6000000E-02
    1       -1.319429   1.000000
    2        1.562778   1.000000
    3        1.677755   1.000000
    4        4.256171   1.000000
    5        4.945202   1.000000
    6        6.122462   1.000000
    7       10.676115  -0.000000
    8       21.661461   0.000000
    9       25.085032   0.000000
   10       25.191628   0.000000
   11       33.405515   0.000000
   12       33.509031   0.000000
 
 -0.3500000E+00  0.5000000E-01  0.5000000E-01  0.6000000E-02
    1       -1.336234   1.000000
    2        1.676448   1.000000
    3        1.809357   1.000000
    4        3.075185   1.000000
    5        4.699699   1.000000
    6        4.777103   1.000000
    7       13.552902   0.000000
    8       22.167160   0.000000
    9       25.597443   0.000000
   10       26.492747   0.000000
   11       32.693087   0.000000
   12       32.762998   0.000000
 
 -0.2500000E+00  0.5000000E-01  0.5000000E-01  0.6000000E-02
    1       -1.742326   1.000000
    2        1.571207   1.000000
    3        1.935294   1.000000
    4        2.012217   1.000000
    5        3.770980   1.000000
    6        4.096977   1.000000
    7       17.621381   0.000000
    8       23.211335   0.000000
    9       26.724111   0.000000
   10       28.636095   0.000000
   11       30.315869   0.000000
   12       32.083257   0.000000
 
 -0.1500000E+00  0.5000000E-01  0.5000000E-01  0.6000000E-02
    1       -2.821146   1.000000
    2        1.282354   1.000000
    3        2.024203   1.000000
    4        2.040105   1.000000
    5        3.254228   1.000000
    6        3.640990   1.000000
    7       21.572526   0.000000
    8       23.608687   0.000000
    9       27.024116   0.000000
   10       28.410587   0.000000
   11       30.379263   0.000000
   12       32.937620   0.000000
 
 -0.5000000E-01  0.5000000E-01  0.5000000E-01  0.6000000E-02
    1       -3.741153   1.000000
    2        1.494861   1.000000
    3        1.808906   1.000000
    4        1.813571   1.000000
    5        3.327661   1.000000
    6        3.547157   1.000000
    7       22.695244   0.000000
    8       25.093653   0.000000
    9       26.672103   0.000000
   10       27.012477   0.000000
   11       32.797826   0.000000
   12       34.864449   0.000000
 
  0.1500000E+00  0.1500000E+00  0.5000000E-01  0.6000000E-02
    1       -3.250363   1.000000
    2        1.237541   1.000000
    3        2.040701   1.000000
    4        2.045255   1.000000
    5        3.063939   1.000000
    6        3.676431   1.000000
    7       23.247809   0.000000
    8       24.202082   0.000000
    9       26.152762   0.000000
   10       26.690364   0.000000
   11       32.384813   0.000000
   12       33.811397   0.000000
 
  0.2500000E+00  0.1500000E+00  0.5000000E-01  0.1200000E-01
    1       -2.363039   1.000000
    2        0.944096   1.000000
    3        2.150449   1.000000
    4        2.370119   1.000000
    5        2.995751   1.000000
    6        3.936021   1.000000
    7       21.848914   0.000000
    8       23.609495   0.000000
    9       25.624714   0.000000
   10       26.932649   0.000000
   11       30.335121   0.000000
   12       32.944709   0.000000
 
  0.3500000E+00  0.1500000E+00  0.5000000E-01  0.1200000E-01
    1       -1.297208   1.000000
    2        1.038022   1.000000
    3        1.788588   1.000000
    4        2.380890   1.000000
    5        3.767772   1.000000
    6        4.613865   1.000000
    7       17.864154   0.000000
    8       23.087966   0.000000
    9       24.580349   0.000000
   10       27.056852   0.000000
   11       30.875610   0.000000
   12       32.502213   0.000000
 
  0.4500000E+00  0.1500000E+00  0.5000000E-01  0.1200000E-01
    1       -0.919898   1.000000
    2        1.430474   1.000000
    3        2.045738   1.000000
    4        2.235507   1.000000
    5        4.669225   1.000000
    6        5.889120   1.000000
    7       13.721697   0.000000
    8       22.343671   0.000000
    9       23.434252   0.000000
   10       25.733528   0.000000
   11       32.574346   0.000000
   12       33.922169   0.000000
 
 -0.4500000E+00  0.1500000E+00  0.5000000E-01  0.1200000E-01
    1       -0.908951   1.000000
    2        1.279779   1.000000
    3        2.025678   1.000000
    4        3.045112   1.000000
    5        4.887083   1.000000
    6        7.761238  -0.000001
    7       10.618352  -0.000000
    8       21.835978   0.000000
    9       23.110298   0.000000
   10       24.757709   0.000000
   11       33.308301   0.000000
   12       34.283320   0.000000
 
 -0.3500000E+00  0.1500000E+00  0.5000000E-01  0.1200000E-01
    1       -0.882962   1.000000
    2        1.375882   1.000000
    3        2.054918   1.000000
    4        2.660983   1.000000
    5        4.497563   1.000000
    6        6.651152   1.013985
    7       12.540209   0.000000
    8       21.737667   0.000000
    9       23.270369   0.000000
   10       25.880754   0.000000
   11       32.244997   0.000000
   12       34.004503   0.000000
 
 -0.2500000E+00  0.1500000E+00  0.5000000E-01  0.1200000E-01
    1       -1.047137   1.000000
    2        1.363861   1.000000
    3        1.719460   1.000000
    4        2.277396   1.000000
    5        3.669554   1.000000
    6        5.230430   1.000000
    7       16.484766   0.000000
    8       22.142371   0.000000
    9       24.351888   0.000000
   10       28.000812   0.000000
   11       30.212371   0.000000
   12       33.044039   0.000000
 
 -0.1500000E+00  0.1500000E+00  0.5000000E-01  0.1200000E-01
    1       -1.980423   1.000000
    2        0.993525   1.000000
    3        2.022651   1.000000
    4        2.398182   1.000000
    5        2.991759   1.000000
    6        4.243328   1.000000
    7       20.446226   0.000000
    8       22.828791   0.000000
    9       26.124745   0.000000
   10       27.185211   0.000000
   11       31.064696   0.000000
   12       32.173540   0.000000
 
 -0.5000000E-01  0.1500000E+00  0.5000000E-01  0.1200000E-01
    1       -3.024357   1.000000
    2        1.241569   1.000000
    3        2.042586   1.000000
    4        2.057412   1.000000
    5        3.112775   1.000000
    6        3.686867   1.000000
    7       22.762673   0.000000
    8       23.458944   0.000000
    9       26.207344   0.000000
   10       28.051367   0.000000
   11       30.760804   0.000000
   12       33.922864   0.000000
 
  0.2500000E+00  0.2500000E+00  0.5000000E-01  0.6000000E-02
    1       -1.779610   1.000000
    2        0.526640   1.000000
    3        2.321169   1.000000
    4        2.818063   1.000000
    5        3.040282   1.000000
    6        4.081747   1.000000
    7       22.408417   0.000000
    8       23.654394   0.000000
    9       24.432266   0.000000
   10       25.370478   0.000000
   11       27.485162   0.000000
   12       34.158909   0.000000
 
  0.3500000E+00  0.2500000E+00  0.5000000E-01  0.1200000E-01
    1       -0.942764   1.000000
    2        0.263810   1.000000
    3        2.014508   1.000000
    4        3.225422   1.000000
    5        3.804607   1.000000
    6        4.638155   1.000000
    7       19.643346   0.000000
    8       21.672309   0.000000
    9       23.274569   0.000000
   10       26.119606   0.000000
   11       27.610221   0.000000
   12       34.278691   0.000000
 
  0.4500000E+00  0.2500000E+00  0.5000000E-01  0.1200000E-01
    1       -0.470649   1.000000
    2        0.555975   1.000000
    3        1.727247   1.000000
    4        3.067022   1.000000
    5        4.778820   1.000000
    6        6.201841   1.000000
    7       15.367263   0.000000
    8       20.985892   0.000000
    9       21.479907   0.000000
   10       25.651543   0.000000
   11       30.907950   0.000000
   12       34.407589   0.000000
 
 -0.4500000E+00  0.2500000E+00  0.5000000E-01  0.1200000E-01
    1       -0.343390   1.000000
    2        0.850890   1.000000
    3        1.949532   1.000000
    4        2.829140   1.000000
    5        4.928622   1.000000
    6        8.847380  -0.000000
    7       11.590929  -0.000000
    8       19.661803   0.000000
    9       21.561523   0.000000
   10       25.068617   0.000000
   11       33.487031   0.000000
   12       35.378112   0.000000
 
 -0.3500000E+00  0.2500000E+00  0.5000000E-01  0.1200000E-01
    1       -0.140483   1.000000
    2        0.929703   1.000000
    3        1.959754   1.000000
    4        2.705759   1.000000
    5        4.444791   1.000000
    6        8.676398  -0.000000
    7       12.209954  -0.000000
    8       18.510834   0.000000
    9       22.788020   0.000000
   10       25.255701   0.000000
   11       32.499152   0.000000
   12       35.006756   0.000000
 
 -0.2500000E+00  0.2500000E+00  0.5000000E-01  0.1200000E-01
    1       -0.026805   1.000000
    2        1.034846   1.000000
    3        1.310972   1.000000
    4        2.801072   1.000000
    5        3.625346   1.000000
    6        6.806735   1.028289
    7       15.744746   0.000000
    8       18.470783   0.000000
    9       23.871674   0.000000
   10       27.063664   0.000000
   11       30.016674   0.000000
   12       34.920799   0.000000
 
 -0.1500000E+00  0.2500000E+00  0.5000000E-01  0.1200000E-01
    1       -0.858353   1.000000
    2        0.899619   1.000000
    3        1.689935   1.000000
    4        2.661055   1.000000
    5        3.152411   1.000000
    6        5.342246   1.000000
    7       17.958606   0.000000
    8       20.812589   0.000000
    9       24.814315   0.000000
   10       28.005278   0.000000
   11       29.638121   0.000000
   12       33.664305   0.000000
 
 -0.5000000E-01  0.2500000E+00  0.5000000E-01  0.1200000E-01
    1       -1.899313   1.000000
    2        1.200031   1.000000
    3        1.992275   1.000000
    4        2.173457   1.000000
    5        3.373824   1.000000
    6        4.156412   1.000000
    7       19.082198   0.000000
    8       23.442729   0.000000
    9       26.019526   0.000000
   10       28.326252   0.000000
   11       30.570525   0.000000
   12       31.724897   0.000000
 
  0.3500000E+00  0.3500000E+00  0.5000000E-01  0.6000000E-02
    1       -0.832259   1.000000
    2       -0.176451   1.000000
    3        3.007218   1.000000
    4        3.853418   1.000000
    5        4.319831   1.000000
    6        4.573637   1.000000
    7       19.593619   0.000000
    8       20.507406   0.000000
    9       20.981209   0.000000
   10       24.970443   0.000000
   11       26.924237   0.000000
   12       36.715784   0.000000
 
  0.4500000E+00  0.3500000E+00  0.5000000E-01  0.1200000E-01
    1       -0.696847   1.000000
    2       -0.301434   1.000000
    3        3.075964   1.000000
    4        4.205367   1.000000
    5        4.796500   1.000000
    6        6.216589   1.000000
    7       16.657270   0.000000
    8       18.795090   0.000000
    9       19.420389   0.000000
   10       26.063974   0.000000
   11       28.044654   0.000000
   12       36.364817   0.000000
 
 -0.4500000E+00  0.3500000E+00  0.5000000E-01  0.1200000E-01
    1       -0.513297   1.000000
    2        0.055323   1.000000
    3        2.663545   1.000000
    4        3.845088   1.000000
    5        5.046684   1.000000
    6        9.084621  -0.000000
    7       13.171838   0.000000
    8       17.114437   0.000000
    9       19.488014   0.000000
   10       26.239059   0.000000
   11       30.921864   0.000000
   12       35.346846   0.000000
 
 -0.3500000E+00  0.3500000E+00  0.5000000E-01  0.1200000E-01
    1       -0.173080   1.000000
    2        0.635080   1.000000
    3        2.031604   1.000000
    4        3.450683   1.000000
    5        4.653482   1.000000
    6       10.387263  -0.000000
    7       12.615618   0.000000
    8       15.367719   0.000000
    9       20.977651   0.000000
   10       25.862772   0.000000
   11       33.866272   0.000000
   12       34.636194   0.000000
 
 -0.2500000E+00  0.3500000E+00  0.5000000E-01  0.1200000E-01
    1        0.171093   1.000000
    2        0.973395   1.000000
    3        1.455074   1.000000
    4        3.025642   1.000000
    5        4.159509   1.000000
    6        8.517638  -0.000000
    7       14.157132   0.000000
    8       16.371440   0.000000
    9       22.851646   0.000000
   10       25.680770   0.000000
   11       32.012041   0.000000
   12       35.220985   0.000000
 
 -0.1500000E+00  0.3500000E+00  0.5000000E-01  0.1200000E-01
    1       -0.473367   1.000000
    2        1.256019   1.000000
    3        1.807322   1.000000
    4        2.440627   1.000000
    5        4.053715   1.000000
    6        6.764392   1.035393
    7       14.107512   0.000000
    8       20.221763   0.000000
    9       23.507662   0.000000
   10       26.492460   0.000000
   11       31.018537   0.000000
   12       34.432436   0.000000
 
 -0.5000000E-01  0.3500000E+00  0.5000000E-01  0.1200000E-01
    1       -1.236947   1.000000
    2        1.678276   1.000000
    3        1.971020   1.000000
    4        2.203771   1.000000
    5        4.207336   1.000000
    6        5.018182   1.000000
    7       14.949949   0.000000
    8       22.543707   0.000000
    9       24.807312   0.000000
   10       27.275953   0.000000
   11       31.515841   0.000000
   12       32.791678   0.000000
 
  0.4500000E+00  0.4500000E+00  0.5000000E-01  0.6000000E-02
    1       -1.007120   1.000000
    2       -0.636581   1.000000
    3        4.631052   1.000000
    4        4.679060   1.000000
    5        5.083900   1.000000
    6        6.596311   1.005997
    7       15.406332   0.000000
    8       17.871911   0.000000
    9       18.182931   0.000000
   10       25.387961   0.000000
   11       27.988171   0.000000
   12       37.651088   0.000000
 
 -0.4500000E+00  0.4500000E+00  0.5000000E-01  0.1200000E-01
    1       -0.929595   1.000000
    2       -0.577241   1.000000
    3        4.165639   1.000000
    4        4.618179   1.000000
    5        5.261271   1.000000
    6        8.760403  -0.000000
    7       13.440327   0.000000
    8       16.815149   0.000000
    9       17.783295   0.000000
   10       26.411937   0.000000
   11       28.539815   0.000000
   12       36.736836   0.000000
 
 -0.3500000E+00  0.4500000E+00  0.5000000E-01  0.1200000E-01
    1       -0.579970   1.000000
    2       -0.048363   1.000000
    3        2.998996   1.000000
    4        4.050116   1.000000
    5        5.041012   1.000000
    6       10.558320  -0.000000
    7       12.313195  -0.000000
    8       15.689192   0.000000
    9       19.109569   0.000000
   10       26.496906   0.000000
   11       30.956352   0.000000
   12       35.448887   0.000000
 
 -0.2500000E+00  0.4500000E+00  0.5000000E-01  0.1200000E-01
    1       -0.204907   1.000000
    2        0.687677   1.000000
    3        1.981768   1.000000
    4        3.188861   1.000000
    5        4.804058   1.000000
    6       10.599524  -0.000000
    7       10.928785  -0.000000
    8       17.456207   0.000000
    9       21.171884   0.000000
   10       25.516498   0.000000
   11       33.656653   0.000000
   12       35.033828   0.000000
 
 -0.1500000E+00  0.4500000E+00  0.5000000E-01  0.1200000E-01
    1       -0.548356   1.000000
    2        1.069813   1.000000
    3        2.336412   1.000000
    4        2.512530   1.000000
    5        4.732748   1.000000
    6        8.703925  -0.000000
    7       10.736553  -0.000000
    8       20.560908   0.000000
    9       22.706113   0.000000
   10       24.808524   0.000000
   11       33.066028   0.000000
   12       34.681831   0.000000
 
 -0.5000000E-01  0.4500000E+00  0.5000000E-01  0.1200000E-01
    1       -1.171781   1.000000
    2        1.486711   1.000000
    3        1.813594   1.000000
    4        3.518588   1.000000
    5        4.831307   1.000000
    6        6.419374   1.000110
    7       11.331946  -0.000000
    8       21.881952   0.000000
    9       24.217713   0.000000
   10       25.396869   0.000000
   11       33.142177   0.000000
   12       33.707956   0.000000
 
 -0.4500000E+00 -0.4500000E+00  0.5000000E-01  0.6000000E-02
    1       -1.098726   1.000000
    2       -0.734219   1.000000
    3        4.822836   1.000000
    4        4.992639   1.000000
    5        5.276607   1.000000
    6        7.797383  -0.000000
    7       13.759188   0.000000
    8       17.285016   0.000000
    9       17.645616   0.000000
   10       25.568190   0.000000
   11       28.208401   0.000000
   12       37.413972   0.000000
 
 -0.3500000E+00 -0.4500000E+00  0.5000000E-01  0.1200000E-01
    1       -0.835350   1.000000
    2       -0.483489   1.000000
    3        3.734107   1.000000
    4        4.532244   1.000000
    5        5.073911   1.000000
    6        7.536133  -0.000688
    7       14.919769   0.000000
    8       17.508018   0.000000
    9       18.316258   0.000000
   10       26.253279   0.000000
   11       28.367775   0.000000
   12       36.714659   0.000000
 
 -0.2500000E+00 -0.4500000E+00  0.5000000E-01  0.1200000E-01
    1       -0.437290   1.000000
    2        0.265188   1.000000
    3        2.166253   1.000000
    4        3.481501   1.000000
    5        4.986765   1.000000
    6        7.539381  -0.000637
    7       14.189083   0.000000
    8       19.108552   0.000000
    9       20.238592   0.000000
   10       25.873706   0.000000
   11       30.893638   0.000000
   12       35.022169   0.000000
 
 -0.1500000E+00 -0.4500000E+00  0.5000000E-01  0.1200000E-01
    1       -0.602223   1.000000
    2        1.125149   1.000000
    3        1.979502   1.000000
    4        2.483773   1.000000
    5        4.908719   1.000000
    6        7.208484  -0.022327
    7       12.582555   0.000000
    8       21.649507   0.000000
    9       22.124404   0.000000
   10       24.944655   0.000000
   11       33.198076   0.000000
   12       35.012000   0.000000
 
 -0.3500000E+00 -0.3500000E+00  0.5000000E-01  0.6000000E-02
    1       -0.873420   1.000000
    2       -0.446804   1.000000
    3        3.916408   1.000000
    4        4.345086   1.000000
    5        4.828955   1.000000
    6        5.287650   1.000000
    7       17.618761   0.000000
    8       19.036535   0.000000
    9       19.178177   0.000000
   10       25.132922   0.000000
   11       27.552200   0.000000
   12       37.780380   0.000000
 
 -0.2500000E+00 -0.3500000E+00  0.5000000E-01  0.1200000E-01
    1       -0.652026   1.000000
    2       -0.045442   1.000000
    3        2.390702   1.000000
    4        3.727684   1.000000
    5        4.387845   1.000000
    6        5.225519   1.000000
    7       18.237167   0.000000
    8       20.230225   0.000000
    9       21.239071   0.000000
   10       26.018195   0.000000
   11       27.647844   0.000000
   12       35.454443   0.000000
 
 -0.1500000E+00 -0.3500000E+00  0.5000000E-01  0.1200000E-01
    1       -0.762345   1.000000
    2        0.834509   1.000000
    3        1.597345   1.000000
    4        2.684745   1.000000
    5        4.347370   1.000000
    6        5.225560   1.000000
    7       16.618915   0.000000
    8       22.250689   0.000000
    9       23.151943   0.000000
   10       25.958647   0.000000
   11       30.931791   0.000000
   12       33.536132   0.000000
 
 -0.2500000E+00 -0.2500000E+00  0.5000000E-01  0.6000000E-02
    1       -1.115404   1.000000
    2        0.156632   1.000000
    3        2.406224   1.000000
    4        3.321966   1.000000
    5        3.601091   1.000000
    6        4.325971   1.000000
    7       21.154435   0.000000
    8       22.051357   0.000000
    9       23.276491   0.000000
   10       25.293427   0.000000
   11       26.229545   0.000000
   12       35.295649   0.000000
 
 -0.1500000E+00 -0.2500000E+00  0.5000000E-01  0.1200000E-01
    1       -1.602626   1.000000
    2        0.604394   1.000000
    3        2.046190   1.000000
    4        2.765641   1.000000
    5        3.261596   1.000000
    6        4.252214   1.000000
    7       20.841897   0.000000
    8       22.976647   0.000000
    9       24.904632   0.000000
   10       26.044579   0.000000
   11       28.812969   0.000000
   12       33.223109   0.000000
 
 -0.1500000E+00 -0.1500000E+00  0.5000000E-01  0.6000000E-02
    1       -2.563814   1.000000
    2        0.900134   1.000000
    3        2.319582   1.000000
    4        2.383924   1.000000
    5        2.816129   1.000000
    6        3.859838   1.000000
    7       23.273683   0.000000
    8       24.103160   0.000000
    9       25.107899   0.000000
   10       25.895002   0.000000
   11       30.225373   0.000000
   12       33.580183   0.000000
 
  0.1500000E+00  0.1500000E+00  0.1500000E+00  0.2000000E-02
    1       -3.266234   1.000000
    2        1.419002   1.000000
    3        1.917157   1.000000
    4        1.917157   1.000000
    5        3.418811   1.000000
    6        3.418811   1.000000
    7       22.593843   0.000000
    8       23.441086   0.000000
    9       27.671403   0.000000
   10       27.671403   0.000000
   11       31.221355   0.000000
   12       33.928126   0.000000
 
  0.2500000E+00  0.1500000E+00  0.1500000E+00  0.6000000E-02
    1       -2.588521   1.000000
    2        1.173458   1.000000
    3        2.060648   1.000000
    4        2.158185   1.000000
    5        3.046797   1.000000
    6        3.874077   1.000000
    7       21.581510   0.000000
    8       23.295408   0.000000
    9       26.202958   0.000000
   10       28.684745   0.000000
   11       29.763208   0.000000
   12       33.683684   0.000000
 
  0.3500000E+00  0.1500000E+00  0.1500000E+00  0.6000000E-02
    1       -1.456753   1.000000
    2        0.986281   1.000000
    3        1.922949   1.000000
    4        2.488048   1.000000
    5        2.934251   1.000000
    6        4.738365   1.000000
    7       19.159160   0.000000
    8       21.892533   0.000000
    9       25.778926   0.000000
   10       27.493877   0.000000
   11       30.675016   0.000000
   12       32.702701   0.000000
 
  0.4500000E+00  0.1500000E+00  0.1500000E+00  0.6000000E-02
    1       -0.768842   1.000000
    2        1.436793   1.000000
    3        1.829705   1.000000
    4        2.244533   1.000000
    5        3.732954   1.000000
    6        5.934221   1.000000
    7       15.239027   0.000000
    8       21.178774   0.000000
    9       24.040449   0.000000
   10       27.642698   0.000000
   11       30.143995   0.000000
   12       33.796962   0.000000
 
 -0.4500000E+00  0.1500000E+00  0.1500000E+00  0.6000000E-02
    1       -0.759977   1.000000
    2        1.261547   1.000000
    3        2.113781   1.000000
    4        2.783077   1.000000
    5        4.555509   1.000000
    6        7.565560  -0.000335
    7       11.539053  -0.000000
    8       21.091570   0.000000
    9       23.405378   0.000000
   10       25.071524   0.000000
   11       32.768338   0.000000
   12       34.019564   0.000000
 
 -0.3500000E+00  0.1500000E+00  0.1500000E+00  0.6000000E-02
    1       -0.806317   1.000000
    2        1.227682   1.000000
    3        2.171428   1.000000
    4        2.596754   1.000000
    5        4.982658   1.000000
    6        7.499097  -0.001588
    7       11.347301  -0.000000
    8       21.697453   0.000000
    9       23.671382   0.000000
   10       23.897653   0.000000
   11       33.861402   0.000000
   12       34.229489   0.000000
 
 -0.2500000E+00  0.1500000E+00  0.1500000E+00  0.6000000E-02
    1       -0.875259   1.000000
    2        1.329721   1.000000
    3        1.622270   1.000000
    4        2.364802   1.000000
    5        4.804768   1.000000
    6        5.272780   1.000000
    7       15.085263   0.000000
    8       22.740600   0.000000
    9       23.545465   0.000000
   10       25.240552   0.000000
   11       32.798317   0.000000
   12       33.563211   0.000000
 
 -0.1500000E+00  0.1500000E+00  0.1500000E+00  0.6000000E-02
    1       -1.493322   1.000000
    2        0.754523   1.000000
    3        1.933851   1.000000
    4        2.525164   1.000000
    5        3.673941   1.000000
    6        4.261010   1.000000
    7       19.361388   0.000000
    8       23.962792   0.000000
    9       24.223585   0.000000
   10       26.377823   0.000000
   11       29.748372   0.000000
   12       33.419685   0.000000
 
  0.2500000E+00  0.2500000E+00  0.1500000E+00  0.6000000E-02
    1       -2.201679   1.000000
    2        1.041557   1.000000
    3        2.081393   1.000000
    4        2.242307   1.000000
    5        3.256674   1.000000
    6        3.932843   1.000000
    7       20.490078   0.000000
    8       23.885835   0.000000
    9       25.788399   0.000000
   10       27.732240   0.000000
   11       30.164434   0.000000
   12       32.840402   0.000000
 
  0.3500000E+00  0.2500000E+00  0.1500000E+00  0.1200000E-01
    1       -1.276453   1.000000
    2        0.742801   1.000000
    3        1.814958   1.000000
    4        2.731130   1.000000
    5        3.234671   1.000000
    6        4.715319   1.000000
    7       19.321449   0.000000
    8       21.931402   0.000000
    9       24.968670   0.000000
   10       26.959064   0.000000
   11       30.417515   0.000000
   12       32.315262   0.000000
 
  0.4500000E+00  0.2500000E+00  0.1500000E+00  0.1200000E-01
    1       -0.287851   1.000000
    2        0.768542   1.000000
    3        1.346117   1.000000
    4        2.989649   1.000000
    5        3.600765   1.000000
    6        6.047332   1.000000
    7       16.820438   0.000000
    8       19.632130   0.000000
    9       23.487860   0.000000
   10       27.969668   0.000000
   11       29.413542   0.000000
   12       34.319170   0.000000
 
 -0.4500000E+00  0.2500000E+00  0.1500000E+00  0.1200000E-01
    1       -0.165516   1.000000
    2        0.959031   1.000000
    3        1.692809   1.000000
    4        2.756507   1.000000
    5        4.432679   1.000000
    6        7.833910  -0.000000
    7       13.097181   0.000000
    8       19.330911   0.000000
    9       22.147724   0.000000
   10       26.310999   0.000000
   11       31.611809   0.000000
   12       35.439375   0.000000
 
 -0.3500000E+00  0.2500000E+00  0.1500000E+00  0.1200000E-01
    1       -0.249921   1.000000
    2        0.850104   1.000000
    3        2.077386   1.000000
    4        2.678950   1.000000
    5        4.787836   1.000000
    6        9.531432  -0.000000
    7       10.698199  -0.000000
    8       20.007943   0.000000
    9       21.073115   0.000000
   10       25.702281   0.000000
   11       32.669759   0.000000
   12       35.866478   0.000000
 
 -0.2500000E+00  0.2500000E+00  0.1500000E+00  0.1200000E-01
    1       -0.302264   1.000000
    2        0.954110   1.000000
    3        1.438602   1.000000
    4        2.908137   1.000000
    5        4.580224   1.000000
    6        7.024010   0.455576
    7       14.134289   0.000000
    8       20.242237   0.000000
    9       21.705952   0.000000
   10       26.322667   0.000000
   11       31.586075   0.000000
   12       34.762136   0.000000
 
 -0.1500000E+00  0.2500000E+00  0.1500000E+00  0.1200000E-01
    1       -0.636006   1.000000
    2        0.474585   1.000000
    3        1.611172   1.000000
    4        3.142392   1.000000
    5        3.714832   1.000000
    6        5.302469   1.000000
    7       18.133608   0.000000
    8       20.743058   0.000000
    9       23.315146   0.000000
   10       27.133022   0.000000
   11       29.232162   0.000000