       N       E                     dE             d eps       ncg     rms          rms(c)
DAV:   1    -0.596255193123E+01   -0.59626E+01   -0.24044E+01  3068   0.567E+01    0.742E+00
DAV:   2    -0.438466802199E+01    0.15779E+01   -0.40283E+00  2988   0.215E+01    0.158E+00
DAV:   3    -0.431626290487E+01    0.68405E-01   -0.29708E-01  3132   0.547E+00    0.151E-01
DAV:   4    -0.431732408405E+01   -0.10612E-02   -0.19948E-03  2864   0.376E-01    0.330E-02
DAV:   5    -0.431732568650E+01   -0.16024E-05   -0.42081E-05  1876   0.645E-02
   1 F= -.43173257E+01 E0= -.43173774E+01  d E =0.155020E-03
