 vasp.5.4.4.18Apr17-6-g9f103f2a35 (build Jul 01 2019 03:25:34) complex          
  
 executed on             LinuxIFC date 2020.07.08  00:55:26
 running on    4 total cores
 distrk:  each k-point on    4 cores,    1 groups
 distr:  one band on NCORES_PER_BAND=   1 cores,    4 groups


--------------------------------------------------------------------------------------------------------


 INCAR:
 POTCAR:   PAW Au 04Feb1998                       
 POTCAR:   PAW Au 04Feb1998                       
   VRHFIN =Au: s1d10                                                            
   LEXCH  = CA                                                                  
   EATOM  =   929.4667 eV,   68.3139 Ry                                         
                                                                                
   TITEL  = PAW Au 04Feb1998                                                    
   LULTRA =        F    use ultrasoft PP ?                                      
   IUNSCR =        1    unscreen: 0-lin 1-nonlin 2-no                           
   RPACOR =    2.330    partial core radius                                     
   POMASS =  196.966; ZVAL   =   11.000    mass and valenz                      
   RCORE  =    2.500    outmost cutoff radius                                   
   RWIGS  =    2.840; RWIGS  =    1.503    wigner-seitz radius (au A)           
   ENMAX  =  229.869; ENMIN  =  172.402 eV                                      
   RCLOC  =    1.964    cutoff for local pot                                    
   LCOR   =        T    correct aug charges                                     
   LPAW   =        T    paw PP                                                  
   EAUG   =  356.670                                                            
   DEXC   =    -.020                                                            
   RMAX   =    3.041    core radius for proj-oper                               
   RDEP   =    2.598    core radius for depl-charge                             
   QCUT   =   -4.110; QGAM   =    8.221    optimization parameters              
                                                                                
   Description                                                                  
     l     E      TYP  RCUT    TYP  RCUT                                        
     2   .000     23  2.500                                                     
     2   .000     23  2.500                                                     
     0   .000     23  2.500                                                     
     0   .000     23  2.500                                                     
     1  -.200     23  2.500                                                     
     1   .000     23  2.500                                                     
     3   .000      7   .000                                                     
  local pseudopotential read in
  partial core-charges read in
  atomic valenz-charges read in
  non local Contribution for L=           2  read in
    real space projection operators read in
  non local Contribution for L=           2  read in
    real space projection operators read in
  non local Contribution for L=           0  read in
    real space projection operators read in
  non local Contribution for L=           0  read in
    real space projection operators read in
  non local Contribution for L=           1  read in
    real space projection operators read in
  non local Contribution for L=           1  read in
    real space projection operators read in
    PAW grid and wavefunctions read in
 
   number of l-projection  operators is LMAX  =           6
   number of lm-projection operators is LMMAX =          18
 
 PAW Au 04Feb1998                       :
 energy of atom  1       EATOM= -929.4667
 kinetic energy error for atom=    0.0704 (will be added to EATOM!!)
 
 
 POSCAR: FCC Au Bulk                             
  positions in direct lattice
  No initial velocities read in
 exchange correlation table for  LEXCH =        2
   RHO(1)=    0.500       N(1)  =     2000
   RHO(2)=  100.500       N(2)  =     4000
 


--------------------------------------------------------------------------------------------------------


 ion  position               nearest neighbor table
   1  0.000  0.000  0.000-
 
  LATTYP: Found a face centered cubic cell.
 ALAT       =     3.9500000000
  
  Lattice vectors:
  
 A1 = (   0.0000000000,   1.9750000000,   1.9750000000)
 A2 = (   1.9750000000,   0.0000000000,   1.9750000000)
 A3 = (   1.9750000000,   1.9750000000,   0.0000000000)


Analysis of symmetry for initial positions (statically):
=====================================================================
 Subroutine PRICEL returns:
 Original cell was already a primitive cell.
 

 Routine SETGRP: Setting up the symmetry group for a 
 face centered cubic supercell.


 Subroutine GETGRP returns: Found 48 space group operations
 (whereof 48 operations were pure point group operations)
 out of a pool of 48 trial point group operations.


The static configuration has the point symmetry O_h .


Analysis of symmetry for dynamics (positions and initial velocities):
=====================================================================
 Subroutine PRICEL returns:
 Original cell was already a primitive cell.
 

 Routine SETGRP: Setting up the symmetry group for a 
 face centered cubic supercell.


 Subroutine GETGRP returns: Found 48 space group operations
 (whereof 48 operations were pure point group operations)
 out of a pool of 48 trial point group operations.


The dynamic configuration has the point symmetry O_h .


 Subroutine INISYM returns: Found 48 space group operations
 (whereof 48 operations are pure point group operations),
 and found     1 'primitive' translations

 
 
 KPOINTS: 10x10x10                                

Automatic generation of k-mesh.
Space group operators:
 irot       det(A)        alpha          n_x          n_y          n_z        tau_x        tau_y        tau_z
    1     1.000000     0.000000     1.000000     0.000000     0.000000     0.000000     0.000000     0.000000
    2    -1.000000     0.000000     1.000000     0.000000     0.000000     0.000000     0.000000     0.000000
    3     1.000000   120.000000    -0.577350    -0.577350    -0.577350     0.000000     0.000000     0.000000
    4    -1.000000   120.000000    -0.577350    -0.577350    -0.577350     0.000000     0.000000     0.000000
    5     1.000000   120.000000     0.577350     0.577350     0.577350     0.000000     0.000000     0.000000
    6    -1.000000   120.000000     0.577350     0.577350     0.577350     0.000000     0.000000     0.000000
    7     1.000000    90.000000     0.000000     0.000000    -1.000000     0.000000     0.000000     0.000000
    8    -1.000000    90.000000     0.000000     0.000000    -1.000000     0.000000     0.000000     0.000000
    9     1.000000   180.000000     0.000000     0.707107     0.707107     0.000000     0.000000     0.000000
   10    -1.000000   180.000000     0.000000     0.707107     0.707107     0.000000     0.000000     0.000000
   11     1.000000    90.000000     0.000000     1.000000     0.000000     0.000000     0.000000     0.000000
   12    -1.000000    90.000000     0.000000     1.000000     0.000000     0.000000     0.000000     0.000000
   13     1.000000   180.000000     0.000000     0.000000     1.000000     0.000000     0.000000     0.000000
   14    -1.000000   180.000000     0.000000     0.000000     1.000000     0.000000     0.000000     0.000000
   15     1.000000   120.000000    -0.577350     0.577350     0.577350     0.000000     0.000000     0.000000
   16    -1.000000   120.000000    -0.577350     0.577350     0.577350     0.000000     0.000000     0.000000
   17     1.000000   120.000000    -0.577350     0.577350    -0.577350     0.000000     0.000000     0.000000
   18    -1.000000   120.000000    -0.577350     0.577350    -0.577350     0.000000     0.000000     0.000000
   19     1.000000    90.000000     0.000000     0.000000     1.000000     0.000000     0.000000     0.000000
   20    -1.000000    90.000000     0.000000     0.000000     1.000000     0.000000     0.000000     0.000000
   21     1.000000    90.000000    -1.000000     0.000000     0.000000     0.000000     0.000000     0.000000
   22    -1.000000    90.000000    -1.000000     0.000000     0.000000     0.000000     0.000000     0.000000
   23     1.000000   180.000000     0.707107     0.000000     0.707107     0.000000     0.000000     0.000000
   24    -1.000000   180.000000     0.707107     0.000000     0.707107     0.000000     0.000000     0.000000
   25     1.000000   120.000000     0.577350    -0.577350     0.577350     0.000000     0.000000     0.000000
   26    -1.000000   120.000000     0.577350    -0.577350     0.577350     0.000000     0.000000     0.000000
   27     1.000000   120.000000    -0.577350    -0.577350     0.577350     0.000000     0.000000     0.000000
   28    -1.000000   120.000000    -0.577350    -0.577350     0.577350     0.000000     0.000000     0.000000
   29     1.000000   180.000000     1.000000     0.000000     0.000000     0.000000     0.000000     0.000000
   30    -1.000000   180.000000     1.000000     0.000000     0.000000     0.000000     0.000000     0.000000
   31     1.000000    90.000000     0.000000    -1.000000     0.000000     0.000000     0.000000     0.000000
   32    -1.000000    90.000000     0.000000    -1.000000     0.000000     0.000000     0.000000     0.000000
   33     1.000000   180.000000     0.707107     0.707107     0.000000     0.000000     0.000000     0.000000
   34    -1.000000   180.000000     0.707107     0.707107     0.000000     0.000000     0.000000     0.000000
   35     1.000000    90.000000     1.000000     0.000000     0.000000     0.000000     0.000000     0.000000
   36    -1.000000    90.000000     1.000000     0.000000     0.000000     0.000000     0.000000     0.000000
   37     1.000000   120.000000     0.577350    -0.577350    -0.577350     0.000000     0.000000     0.000000
   38    -1.000000   120.000000     0.577350    -0.577350    -0.577350     0.000000     0.000000     0.000000
   39     1.000000   180.000000     0.000000     1.000000     0.000000     0.000000     0.000000     0.000000
   40    -1.000000   180.000000     0.000000     1.000000     0.000000     0.000000     0.000000     0.000000
   41     1.000000   120.000000     0.577350     0.577350    -0.577350     0.000000     0.000000     0.000000
   42    -1.000000   120.000000     0.577350     0.577350    -0.577350     0.000000     0.000000     0.000000
   43     1.000000   180.000000     0.000000    -0.707107     0.707107     0.000000     0.000000     0.000000
   44    -1.000000   180.000000     0.000000    -0.707107     0.707107     0.000000     0.000000     0.000000
   45     1.000000   180.000000     0.707107    -0.707107     0.000000     0.000000     0.000000     0.000000
   46    -1.000000   180.000000     0.707107    -0.707107     0.000000     0.000000     0.000000     0.000000
   47     1.000000   180.000000     0.707107     0.000000    -0.707107     0.000000     0.000000     0.000000
   48    -1.000000   180.000000     0.707107     0.000000    -0.707107     0.000000     0.000000     0.000000
 
 Subroutine IBZKPT returns following result:
 ===========================================
 
 Found    110 irreducible k-points:
 
 Following reciprocal coordinates:
            Coordinates               Weight
  0.050000  0.050000  0.050000     96.000000
  0.150000  0.050000  0.050000    288.000000
  0.250000  0.050000  0.050000    288.000000
  0.350000  0.050000  0.050000    288.000000
  0.450000  0.050000  0.050000    288.000000
 -0.450000  0.050000  0.050000    288.000000
 -0.350000  0.050000  0.050000    288.000000
 -0.250000  0.050000  0.050000    288.000000
 -0.150000  0.050000  0.050000    288.000000
 -0.050000  0.050000  0.050000    288.000000
  0.150000  0.150000  0.050000    288.000000
  0.250000  0.150000  0.050000    576.000000
  0.350000  0.150000  0.050000    576.000000
  0.450000  0.150000  0.050000    576.000000
 -0.450000  0.150000  0.050000    576.000000
 -0.350000  0.150000  0.050000    576.000000
 -0.250000  0.150000  0.050000    576.000000
 -0.150000  0.150000  0.050000    576.000000
 -0.050000  0.150000  0.050000    576.000000
  0.250000  0.250000  0.050000    288.000000
  0.350000  0.250000  0.050000    576.000000
  0.450000  0.250000  0.050000    576.000000
 -0.450000  0.250000  0.050000    576.000000
 -0.350000  0.250000  0.050000    576.000000
 -0.250000  0.250000  0.050000    576.000000
 -0.150000  0.250000  0.050000    576.000000
 -0.050000  0.250000  0.050000    576.000000
  0.350000  0.350000  0.050000    288.000000
  0.450000  0.350000  0.050000    576.000000
 -0.450000  0.350000  0.050000    576.000000
 -0.350000  0.350000  0.050000    576.000000
 -0.250000  0.350000  0.050000    576.000000
 -0.150000  0.350000  0.050000    576.000000
 -0.050000  0.350000  0.050000    576.000000
  0.450000  0.450000  0.050000    288.000000
 -0.450000  0.450000  0.050000    576.000000
 -0.350000  0.450000  0.050000    576.000000
 -0.250000  0.450000  0.050000    576.000000
 -0.150000  0.450000  0.050000    576.000000
 -0.050000  0.450000  0.050000    576.000000
 -0.450000 -0.450000  0.050000    288.000000
 -0.350000 -0.450000  0.050000    576.000000
 -0.250000 -0.450000  0.050000    576.000000
 -0.150000 -0.450000  0.050000    576.000000
 -0.350000 -0.350000  0.050000    288.000000
 -0.250000 -0.350000  0.050000    576.000000
 -0.150000 -0.350000  0.050000    576.000000
 -0.250000 -0.250000  0.050000    288.000000
 -0.150000 -0.250000  0.050000    576.000000
 -0.150000 -0.150000  0.050000    288.000000
  0.150000  0.150000  0.150000     96.000000
  0.250000  0.150000  0.150000    288.000000
  0.350000  0.150000  0.150000    288.000000
  0.450000  0.150000  0.150000    288.000000
 -0.450000  0.150000  0.150000    288.000000
 -0.350000  0.150000  0.150000    288.000000
 -0.250000  0.150000  0.150000    288.000000
 -0.150000  0.150000  0.150000    288.000000
  0.250000  0.250000  0.150000    288.000000
  0.350000  0.250000  0.150000    576.000000
  0.450000  0.250000  0.150000    576.000000
 -0.450000  0.250000  0.150000    576.000000
 -0.350000  0.250000  0.150000    576.000000
 -0.250000  0.250000  0.150000    576.000000
 -0.150000  0.250000  0.150000    576.000000
  0.350000  0.350000  0.150000    288.000000
  0.450000  0.350000  0.150000    576.000000
 -0.450000  0.350000  0.150000    576.000000
 -0.350000  0.350000  0.150000    576.000000
 -0.250000  0.350000  0.150000    576.000000
 -0.150000  0.350000  0.150000    576.000000
  0.450000  0.450000  0.150000    288.000000
 -0.450000  0.450000  0.150000    576.000000
 -0.350000  0.450000  0.150000    576.000000
 -0.250000  0.450000  0.150000    576.000000
 -0.150000  0.450000  0.150000    576.000000
 -0.450000 -0.450000  0.150000    288.000000
 -0.350000 -0.450000  0.150000    576.000000
 -0.250000 -0.450000  0.150000    576.000000
 -0.350000 -0.350000  0.150000    288.000000
 -0.250000 -0.350000  0.150000    576.000000
 -0.250000 -0.250000  0.150000    288.000000
  0.250000  0.250000  0.250000     96.000000
  0.350000  0.250000  0.250000    288.000000
  0.450000  0.250000  0.250000    288.000000
 -0.450000  0.250000  0.250000    288.000000
 -0.350000  0.250000  0.250000    288.000000
 -0.250000  0.250000  0.250000    288.000000
  0.350000  0.350000  0.250000    288.000000
  0.450000  0.350000  0.250000    576.000000
 -0.450000  0.350000  0.250000    576.000000
 -0.350000  0.350000  0.250000    576.000000
 -0.250000  0.350000  0.250000    576.000000
  0.450000  0.450000  0.250000    288.000000
 -0.450000  0.450000  0.250000    576.000000
 -0.350000  0.450000  0.250000    576.000000
 -0.250000  0.450000  0.250000    576.000000
 -0.450000 -0.450000  0.250000    288.000000
 -0.350000 -0.450000  0.250000    576.000000
 -0.350000 -0.350000  0.250000    288.000000
  0.350000  0.350000  0.350000     96.000000
  0.450000  0.350000  0.350000    288.000000
 -0.450000  0.350000  0.350000    288.000000
 -0.350000  0.350000  0.350000    288.000000
  0.450000  0.450000  0.350000    288.000000
 -0.450000  0.450000  0.350000    576.000000
 -0.350000  0.450000  0.350000    576.000000
 -0.450000 -0.450000  0.350000    288.000000
  0.450000  0.450000  0.450000     96.000000
 -0.450000  0.450000  0.450000    288.000000
 
 Following cartesian coordinates:
            Coordinates               Weight
  0.050000  0.050000  0.050000     96.000000
 -0.050000  0.150000  0.150000    288.000000
 -0.150000  0.250000  0.250000    288.000000
 -0.250000  0.350000  0.350000    288.000000
 -0.350000  0.450000  0.450000    288.000000
  0.550000 -0.450000 -0.450000    288.000000
  0.450000 -0.350000 -0.350000    288.000000
  0.350000 -0.250000 -0.250000    288.000000
  0.250000 -0.150000 -0.150000    288.000000
  0.150000 -0.050000 -0.050000    288.000000
  0.050000  0.050000  0.250000    288.000000
 -0.050000  0.150000  0.350000    576.000000
 -0.150000  0.250000  0.450000    576.000000
 -0.250000  0.350000  0.550000    576.000000
  0.650000 -0.550000 -0.350000    576.000000
  0.550000 -0.450000 -0.250000    576.000000
  0.450000 -0.350000 -0.150000    576.000000
  0.350000 -0.250000 -0.050000    576.000000
  0.250000 -0.150000  0.050000    576.000000
  0.050000  0.050000  0.450000    288.000000
 -0.050000  0.150000  0.550000    576.000000
 -0.150000  0.250000  0.650000    576.000000
  0.750000 -0.650000 -0.250000    576.000000
  0.650000 -0.550000 -0.150000    576.000000
  0.550000 -0.450000 -0.050000    576.000000
  0.450000 -0.350000  0.050000    576.000000
  0.350000 -0.250000  0.150000    576.000000
  0.050000  0.050000  0.650000    288.000000
 -0.050000  0.150000  0.750000    576.000000
  0.850000 -0.750000 -0.150000    576.000000
  0.750000 -0.650000 -0.050000    576.000000
  0.650000 -0.550000  0.050000    576.000000
  0.550000 -0.450000  0.150000    576.000000
  0.450000 -0.350000  0.250000    576.000000
  0.050000  0.050000  0.850000    288.000000
  0.950000 -0.850000 -0.050000    576.000000
  0.850000 -0.750000  0.050000    576.000000
  0.750000 -0.650000  0.150000    576.000000
  0.650000 -0.550000  0.250000    576.000000
  0.550000 -0.450000  0.350000    576.000000
  0.050000  0.050000 -0.950000    288.000000
 -0.050000  0.150000 -0.850000    576.000000
 -0.150000  0.250000 -0.750000    576.000000
 -0.250000  0.350000 -0.650000    576.000000
  0.050000  0.050000 -0.750000    288.000000
 -0.050000  0.150000 -0.650000    576.000000
 -0.150000  0.250000 -0.550000    576.000000
  0.050000  0.050000 -0.550000    288.000000
 -0.050000  0.150000 -0.450000    576.000000
  0.050000  0.050000 -0.350000    288.000000
  0.150000  0.150000  0.150000     96.000000
  0.050000  0.250000  0.250000    288.000000
 -0.050000  0.350000  0.350000    288.000000
 -0.150000  0.450000  0.450000    288.000000
  0.750000 -0.450000 -0.450000    288.000000
  0.650000 -0.350000 -0.350000    288.000000
  0.550000 -0.250000 -0.250000    288.000000
  0.450000 -0.150000 -0.150000    288.000000
  0.150000  0.150000  0.350000    288.000000
  0.050000  0.250000  0.450000    576.000000
 -0.050000  0.350000  0.550000    576.000000
  0.850000 -0.550000 -0.350000    576.000000
  0.750000 -0.450000 -0.250000    576.000000
  0.650000 -0.350000 -0.150000    576.000000
  0.550000 -0.250000 -0.050000    576.000000
  0.150000  0.150000  0.550000    288.000000
  0.050000  0.250000  0.650000    576.000000
  0.950000 -0.650000 -0.250000    576.000000
  0.850000 -0.550000 -0.150000    576.000000
  0.750000 -0.450000 -0.050000    576.000000
  0.650000 -0.350000  0.050000    576.000000
  0.150000  0.150000  0.750000    288.000000
  1.050000 -0.750000 -0.150000    576.000000
  0.950000 -0.650000 -0.050000    576.000000
  0.850000 -0.550000  0.050000    576.000000
  0.750000 -0.450000  0.150000    576.000000
  0.150000  0.150000 -1.050000    288.000000
  0.050000  0.250000 -0.950000    576.000000
 -0.050000  0.350000 -0.850000    576.000000
  0.150000  0.150000 -0.850000    288.000000
  0.050000  0.250000 -0.750000    576.000000
  0.150000  0.150000 -0.650000    288.000000
  0.250000  0.250000  0.250000     96.000000
  0.150000  0.350000  0.350000    288.000000
  0.050000  0.450000  0.450000    288.000000
  0.950000 -0.450000 -0.450000    288.000000
  0.850000 -0.350000 -0.350000    288.000000
  0.750000 -0.250000 -0.250000    288.000000
  0.250000  0.250000  0.450000    288.000000
  0.150000  0.350000  0.550000    576.000000
  1.050000 -0.550000 -0.350000    576.000000
  0.950000 -0.450000 -0.250000    576.000000
  0.850000 -0.350000 -0.150000    576.000000
  0.250000  0.250000  0.650000    288.000000
  1.150000 -0.650000 -0.250000    576.000000
  1.050000 -0.550000 -0.150000    576.000000
  0.950000 -0.450000 -0.050000    576.000000
  0.250000  0.250000 -1.150000    288.000000
  0.150000  0.350000 -1.050000    576.000000
  0.250000  0.250000 -0.950000    288.000000
  0.350000  0.350000  0.350000     96.000000
  0.250000  0.450000  0.450000    288.000000
  1.150000 -0.450000 -0.450000    288.000000
  1.050000 -0.350000 -0.350000    288.000000
  0.350000  0.350000  0.550000    288.000000
  1.250000 -0.550000 -0.350000    576.000000
  1.150000 -0.450000 -0.250000    576.000000
  0.350000  0.350000 -1.250000    288.000000
  0.450000  0.450000  0.450000     96.000000
  1.350000 -0.450000 -0.450000    288.000000
 


--------------------------------------------------------------------------------------------------------




 Dimension of arrays:
   k-points           NKPTS =    110   k-points in BZ     NKDIM =    110   number of bands    NBANDS=     12
   number of dos      NEDOS =    301   number of ions     NIONS =      1
   non local maximal  LDIM  =      6   non local SUM 2l+1 LMDIM =     18
   total plane-waves  NPLWV =   1000
   max r-space proj   IRMAX =      1   max aug-charges    IRDMAX=   4168
   dimension x,y,z NGX =    10 NGY =   10 NGZ =   10
   dimension x,y,z NGXF=    20 NGYF=   20 NGZF=   20
   support grid    NGXF=    20 NGYF=   20 NGZF=   20
   ions per type =               1
   NGX,Y,Z   is equivalent  to a cutoff of   5.95,  5.95,  5.95 a.u.
   NGXF,Y,Z  is equivalent  to a cutoff of  11.90, 11.90, 11.90 a.u.

 SYSTEM =  FCC Au                                  
 POSCAR =  FCC Au Bulk                             

 Startparameter for this run:
   NWRITE =      2    write-flag & timer
   PREC   = normal    normal or accurate (medium, high low for compatibility)
   ISTART =      1    job   : 0-new  1-cont  2-samecut
   ICHARG =      0    charge: 1-file 2-atom 10-const
   ISPIN  =      1    spin polarized calculation?
   LNONCOLLINEAR =      F non collinear calculations
   LSORBIT =      F    spin-orbit coupling
   INIWAV =      1    electr: 0-lowe 1-rand  2-diag
   LASPH  =      F    aspherical Exc in radial PAW
   METAGGA=      F    non-selfconsistent MetaGGA calc.

 Electronic Relaxation 1
   ENCUT  =  230.0 eV  16.90 Ry    4.11 a.u.   3.45  3.45  3.45*2*pi/ulx,y,z
   ENINI  =  230.0     initial cutoff
   ENAUG  =  356.7 eV  augmentation charge cutoff
   NELM   =     60;   NELMIN=  2; NELMDL=  0     # of ELM steps 
   EDIFF  = 0.1E-03   stopping-criterion for ELM
   LREAL  =      F    real-space projection
   NLSPLINE    = F    spline interpolate recip. space projectors
   LCOMPAT=      F    compatible to vasp.4.4
   GGA_COMPAT  = T    GGA compatible to vasp.4.4-vasp.4.6
   LMAXPAW     = -100 max onsite density
   LMAXMIX     =    2 max onsite mixed and CHGCAR
   VOSKOWN=      0    Vosko Wilk Nusair interpolation
   ROPT   =    0.00000
 Ionic relaxation
   EDIFFG = 0.1E-02   stopping-criterion for IOM
   NSW    =      0    number of steps for IOM
   NBLOCK =      1;   KBLOCK =      1    inner block; outer block 
   IBRION =     -1    ionic relax: 0-MD 1-quasi-New 2-CG
   NFREE  =      0    steps in history (QN), initial steepest desc. (CG)
   ISIF   =      2    stress and relaxation
   IWAVPR =     10    prediction:  0-non 1-charg 2-wave 3-comb
   ISYM   =      2    0-nonsym 1-usesym 2-fastsym
   LCORR  =      T    Harris-Foulkes like correction to forces

   POTIM  = 0.5000    time-step for ionic-motion
   TEIN   =    0.0    initial temperature
   TEBEG  =    0.0;   TEEND  =   0.0 temperature during run
   SMASS  =  -3.00    Nose mass-parameter (am)
   estimated Nose-frequenzy (Omega)   =  0.10E-29 period in steps =****** mass=  -0.178E-27a.u.
   SCALEE = 1.0000    scale energy and forces
   NPACO  =    256;   APACO  = 16.0  distance and # of slots for P.C.
   PSTRESS=    0.0 pullay stress

  Mass of Ions in am
   POMASS = 196.97
  Ionic Valenz
   ZVAL   =  11.00
  Atomic Wigner-Seitz radii
   RWIGS  =  -1.00
  virtual crystal weights 
   VCA    =   1.00
   NELECT =      11.0000    total number of electrons
   NUPDOWN=      -1.0000    fix difference up-down

 DOS related values:
   EMIN   =  10.00;   EMAX   =-10.00  energy-range for DOS
   EFERMI =   0.00
   ISMEAR =     1;   SIGMA  =   0.20  broadening in eV -4-tet -1-fermi 0-gaus

 Electronic relaxation 2 (details)
   IALGO  =     38    algorithm
   LDIAG  =      T    sub-space diagonalisation (order eigenvalues)
   LSUBROT=      F    optimize rotation matrix (better conditioning)
   TURBO    =      0    0=normal 1=particle mesh
   IRESTART =      0    0=no restart 2=restart with 2 vectors
   NREBOOT  =      0    no. of reboots
   NMIN     =      0    reboot dimension
   EREF     =   0.00    reference energy to select bands
   IMIX   =      4    mixing-type and parameters
     AMIX     =   0.40;   BMIX     =  1.00
     AMIX_MAG =   1.60;   BMIX_MAG =  1.00
     AMIN     =   0.10
     WC   =   100.;   INIMIX=   1;  MIXPRE=   1;  MAXMIX= -45

 Intra band minimization:
   WEIMIN = 0.0000     energy-eigenvalue tresh-hold
   EBREAK =  0.21E-05  absolut break condition
   DEPER  =   0.30     relativ break condition  

   TIME   =   0.40     timestep for ELM

  volume/ion in A,a.u.               =      15.41       103.97
  Fermi-wavevector in a.u.,A,eV,Ry     =   1.463172  2.764994 29.128324  2.140871
  Thomas-Fermi vector in A             =   2.579298
 
 Write flags
   LWAVE        =      T    write WAVECAR
   LDOWNSAMPLE  =      F    k-point downsampling of WAVECAR
   LCHARG       =      T    write CHGCAR
   LVTOT        =      F    write LOCPOT, total local potential
   LVHAR        =      F    write LOCPOT, Hartree potential only
   LELF         =      F    write electronic localiz. function (ELF)
   LORBIT       =      0    0 simple, 1 ext, 2 COOP (PROOUT), +10 PAW based schemes


 Dipole corrections
   LMONO  =      F    monopole corrections only (constant potential shift)
   LDIPOL =      F    correct potential (dipole corrections)
   IDIPOL =      0    1-x, 2-y, 3-z, 4-all directions 
   EPSILON=  1.0000000 bulk dielectric constant

 Exchange correlation treatment:
   GGA     =    --    GGA type
   LEXCH   =     2    internal setting for exchange type
   VOSKOWN=      0    Vosko Wilk Nusair interpolation
   LHFCALC =     F    Hartree Fock is set to
   LHFONE  =     F    Hartree Fock one center treatment
   AEXX    =    0.0000 exact exchange contribution

 Linear response parameters
   LEPSILON=     F    determine dielectric tensor
   LRPA    =     F    only Hartree local field effects (RPA)
   LNABLA  =     F    use nabla operator in PAW spheres
   LVEL    =     F    velocity operator in full k-point grid
   LINTERFAST=   F  fast interpolation
   KINTER  =     0    interpolate to denser k-point grid
   CSHIFT  =0.1000    complex shift for real part using Kramers Kronig
   OMEGAMAX=  -1.0    maximum frequency
   DEG_THRESHOLD= 0.2000000E-02 threshold for treating states as degnerate
   RTIME   =   -0.100 relaxation time in fs
  (WPLASMAI=    0.000 imaginary part of plasma frequency in eV, 0.658/RTIME)
   DFIELD  = 0.0000000 0.0000000 0.0000000 field for delta impulse in time
 
 Orbital magnetization related:
   ORBITALMAG=     F  switch on orbital magnetization
   LCHIMAG   =     F  perturbation theory with respect to B field
   DQ        =  0.001000  dq finite difference perturbation B field
   LLRAUG    =     F  two centre corrections for induced B field



--------------------------------------------------------------------------------------------------------


 Static calculation
 charge density and potential will be updated during run
 non-spin polarized calculation
 Variant of blocked Davidson
 Davidson routine will perform the subspace rotation
 perform sub-space diagonalisation
    after iterative eigenvector-optimisation
 modified Broyden-mixing scheme, WC =      100.0
 initial mixing is a Kerker type mixing with AMIX =  0.4000 and BMIX =      1.0000
 Hartree-type preconditioning will be used
 using additional bands            6
 reciprocal scheme for non local part
 use partial core corrections
 calculate Harris-corrections to forces 
   (improved forces if not selfconsistent)
 use of overlap-Matrix (Vanderbilt PP)
 Methfessel and Paxton  Order N= 1 SIGMA  =   0.20


--------------------------------------------------------------------------------------------------------


  energy-cutoff  :      230.00
  volume of cell :       15.41
      direct lattice vectors                 reciprocal lattice vectors
     0.000000000  1.975000000  1.975000000    -0.253164557  0.253164557  0.253164557
     1.975000000  0.000000000  1.975000000     0.253164557 -0.253164557  0.253164557
     1.975000000  1.975000000  0.000000000     0.253164557  0.253164557 -0.253164557

  length of vectors
     2.793071786  2.793071786  2.793071786     0.438493875  0.438493875  0.438493875


 
 old parameters found on file WAVECAR:
  energy-cutoff  :      287.34
  volume of cell :       15.41
      direct lattice vectors                 reciprocal lattice vectors
     0.000000000  1.975000000  1.975000000    -0.253164557  0.253164557  0.253164557
     1.975000000  0.000000000  1.975000000     0.253164557 -0.253164557  0.253164557
     1.975000000  1.975000000  0.000000000     0.253164557  0.253164557 -0.253164557

  length of vectors

 
 k-points in units of 2pi/SCALE and weight: 10x10x10                                
   0.05000000  0.05000000  0.05000000       0.002
  -0.05000000  0.15000000  0.15000000       0.006
  -0.15000000  0.25000000  0.25000000       0.006
  -0.25000000  0.35000000  0.35000000       0.006
  -0.35000000  0.45000000  0.45000000       0.006
   0.55000000 -0.45000000 -0.45000000       0.006
   0.45000000 -0.35000000 -0.35000000       0.006
   0.35000000 -0.25000000 -0.25000000       0.006
   0.25000000 -0.15000000 -0.15000000       0.006
   0.15000000 -0.05000000 -0.05000000       0.006
   0.05000000  0.05000000  0.25000000       0.006
  -0.05000000  0.15000000  0.35000000       0.012
  -0.15000000  0.25000000  0.45000000       0.012
  -0.25000000  0.35000000  0.55000000       0.012
   0.65000000 -0.55000000 -0.35000000       0.012
   0.55000000 -0.45000000 -0.25000000       0.012
   0.45000000 -0.35000000 -0.15000000       0.012
   0.35000000 -0.25000000 -0.05000000       0.012
   0.25000000 -0.15000000  0.05000000       0.012
   0.05000000  0.05000000  0.45000000       0.006
  -0.05000000  0.15000000  0.55000000       0.012
  -0.15000000  0.25000000  0.65000000       0.012
   0.75000000 -0.65000000 -0.25000000       0.012
   0.65000000 -0.55000000 -0.15000000       0.012
   0.55000000 -0.45000000 -0.05000000       0.012
   0.45000000 -0.35000000  0.05000000       0.012
   0.35000000 -0.25000000  0.15000000       0.012
   0.05000000  0.05000000  0.65000000       0.006
  -0.05000000  0.15000000  0.75000000       0.012
   0.85000000 -0.75000000 -0.15000000       0.012
   0.75000000 -0.65000000 -0.05000000       0.012
   0.65000000 -0.55000000  0.05000000       0.012
   0.55000000 -0.45000000  0.15000000       0.012
   0.45000000 -0.35000000  0.25000000       0.012
   0.05000000  0.05000000  0.85000000       0.006
   0.95000000 -0.85000000 -0.05000000       0.012
   0.85000000 -0.75000000  0.05000000       0.012
   0.75000000 -0.65000000  0.15000000       0.012
   0.65000000 -0.55000000  0.25000000       0.012
   0.55000000 -0.45000000  0.35000000       0.012
   0.05000000  0.05000000 -0.95000000       0.006
  -0.05000000  0.15000000 -0.85000000       0.012
  -0.15000000  0.25000000 -0.75000000       0.012
  -0.25000000  0.35000000 -0.65000000       0.012
   0.05000000  0.05000000 -0.75000000       0.006
  -0.05000000  0.15000000 -0.65000000       0.012
  -0.15000000  0.25000000 -0.55000000       0.012
   0.05000000  0.05000000 -0.55000000       0.006
  -0.05000000  0.15000000 -0.45000000       0.012
   0.05000000  0.05000000 -0.35000000       0.006
   0.15000000  0.15000000  0.15000000       0.002
   0.05000000  0.25000000  0.25000000       0.006
  -0.05000000  0.35000000  0.35000000       0.006
  -0.15000000  0.45000000  0.45000000       0.006
   0.75000000 -0.45000000 -0.45000000       0.006
   0.65000000 -0.35000000 -0.35000000       0.006
   0.55000000 -0.25000000 -0.25000000       0.006
   0.45000000 -0.15000000 -0.15000000       0.006
   0.15000000  0.15000000  0.35000000       0.006
   0.05000000  0.25000000  0.45000000       0.012
  -0.05000000  0.35000000  0.55000000       0.012
   0.85000000 -0.55000000 -0.35000000       0.012
   0.75000000 -0.45000000 -0.25000000       0.012
   0.65000000 -0.35000000 -0.15000000       0.012
   0.55000000 -0.25000000 -0.05000000       0.012
   0.15000000  0.15000000  0.55000000       0.006
   0.05000000  0.25000000  0.65000000       0.012
   0.95000000 -0.65000000 -0.25000000       0.012
   0.85000000 -0.55000000 -0.15000000       0.012
   0.75000000 -0.45000000 -0.05000000       0.012
   0.65000000 -0.35000000  0.05000000       0.012
   0.15000000  0.15000000  0.75000000       0.006
   1.05000000 -0.75000000 -0.15000000       0.012
   0.95000000 -0.65000000 -0.05000000       0.012
   0.85000000 -0.55000000  0.05000000       0.012
   0.75000000 -0.45000000  0.15000000       0.012
   0.15000000  0.15000000 -1.05000000       0.006
   0.05000000  0.25000000 -0.95000000       0.012
  -0.05000000  0.35000000 -0.85000000       0.012
   0.15000000  0.15000000 -0.85000000       0.006
   0.05000000  0.25000000 -0.75000000       0.012
   0.15000000  0.15000000 -0.65000000       0.006
   0.25000000  0.25000000  0.25000000       0.002
   0.15000000  0.35000000  0.35000000       0.006
   0.05000000  0.45000000  0.45000000       0.006
   0.95000000 -0.45000000 -0.45000000       0.006
   0.85000000 -0.35000000 -0.35000000       0.006
   0.75000000 -0.25000000 -0.25000000       0.006
   0.25000000  0.25000000  0.45000000       0.006
   0.15000000  0.35000000  0.55000000       0.012
   1.05000000 -0.55000000 -0.35000000       0.012
   0.95000000 -0.45000000 -0.25000000       0.012
   0.85000000 -0.35000000 -0.15000000       0.012
   0.25000000  0.25000000  0.65000000       0.006
   1.15000000 -0.65000000 -0.25000000       0.012
   1.05000000 -0.55000000 -0.15000000       0.012
   0.95000000 -0.45000000 -0.05000000       0.012
   0.25000000  0.25000000 -1.15000000       0.006
   0.15000000  0.35000000 -1.05000000       0.012
   0.25000000  0.25000000 -0.95000000       0.006
   0.35000000  0.35000000  0.35000000       0.002
   0.25000000  0.45000000  0.45000000       0.006
   1.15000000 -0.45000000 -0.45000000       0.006
   1.05000000 -0.35000000 -0.35000000       0.006
   0.35000000  0.35000000  0.55000000       0.006
   1.25000000 -0.55000000 -0.35000000       0.012
   1.15000000 -0.45000000 -0.25000000       0.012
   0.35000000  0.35000000 -1.25000000       0.006
   0.45000000  0.45000000  0.45000000       0.002
   1.35000000 -0.45000000 -0.45000000       0.006
 
 k-points in reciprocal lattice and weights: 10x10x10                                
   0.05000000  0.05000000  0.05000000       0.002
   0.15000000  0.05000000  0.05000000       0.006
   0.25000000  0.05000000  0.05000000       0.006
   0.35000000  0.05000000  0.05000000       0.006
   0.45000000  0.05000000  0.05000000       0.006
  -0.45000000  0.05000000  0.05000000       0.006
  -0.35000000  0.05000000  0.05000000       0.006
  -0.25000000  0.05000000  0.05000000       0.006
  -0.15000000  0.05000000  0.05000000       0.006
  -0.05000000  0.05000000  0.05000000       0.006
   0.15000000  0.15000000  0.05000000       0.006
   0.25000000  0.15000000  0.05000000       0.012
   0.35000000  0.15000000  0.05000000       0.012
   0.45000000  0.15000000  0.05000000       0.012
  -0.45000000  0.15000000  0.05000000       0.012
  -0.35000000  0.15000000  0.05000000       0.012
  -0.25000000  0.15000000  0.05000000       0.012
  -0.15000000  0.15000000  0.05000000       0.012
  -0.05000000  0.15000000  0.05000000       0.012
   0.25000000  0.25000000  0.05000000       0.006
   0.35000000  0.25000000  0.05000000       0.012
   0.45000000  0.25000000  0.05000000       0.012
  -0.45000000  0.25000000  0.05000000       0.012
  -0.35000000  0.25000000  0.05000000       0.012
  -0.25000000  0.25000000  0.05000000       0.012
  -0.15000000  0.25000000  0.05000000       0.012
  -0.05000000  0.25000000  0.05000000       0.012
   0.35000000  0.35000000  0.05000000       0.006
   0.45000000  0.35000000  0.05000000       0.012
  -0.45000000  0.35000000  0.05000000       0.012
  -0.35000000  0.35000000  0.05000000       0.012
  -0.25000000  0.35000000  0.05000000       0.012
  -0.15000000  0.35000000  0.05000000       0.012
  -0.05000000  0.35000000  0.05000000       0.012
   0.45000000  0.45000000  0.05000000       0.006
  -0.45000000  0.45000000  0.05000000       0.012
  -0.35000000  0.45000000  0.05000000       0.012
  -0.25000000  0.45000000  0.05000000       0.012
  -0.15000000  0.45000000  0.05000000       0.012
  -0.05000000  0.45000000  0.05000000       0.012
  -0.45000000 -0.45000000  0.05000000       0.006
  -0.35000000 -0.45000000  0.05000000       0.012
  -0.25000000 -0.45000000  0.05000000       0.012
  -0.15000000 -0.45000000  0.05000000       0.012
  -0.35000000 -0.35000000  0.05000000       0.006
  -0.25000000 -0.35000000  0.05000000       0.012
  -0.15000000 -0.35000000  0.05000000       0.012
  -0.25000000 -0.25000000  0.05000000       0.006
  -0.15000000 -0.25000000  0.05000000       0.012
  -0.15000000 -0.15000000  0.05000000       0.006
   0.15000000  0.15000000  0.15000000       0.002
   0.25000000  0.15000000  0.15000000       0.006
   0.35000000  0.15000000  0.15000000       0.006
   0.45000000  0.15000000  0.15000000       0.006
  -0.45000000  0.15000000  0.15000000       0.006
  -0.35000000  0.15000000  0.15000000       0.006
  -0.25000000  0.15000000  0.15000000       0.006
  -0.15000000  0.15000000  0.15000000       0.006
   0.25000000  0.25000000  0.15000000       0.006
   0.35000000  0.25000000  0.15000000       0.012
   0.45000000  0.25000000  0.15000000       0.012
  -0.45000000  0.25000000  0.15000000       0.012
  -0.35000000  0.25000000  0.15000000       0.012
  -0.25000000  0.25000000  0.15000000       0.012
  -0.15000000  0.25000000  0.15000000       0.012
   0.35000000  0.35000000  0.15000000       0.006
   0.45000000  0.35000000  0.15000000       0.012
  -0.45000000  0.35000000  0.15000000       0.012
  -0.35000000  0.35000000  0.15000000       0.012
  -0.25000000  0.35000000  0.15000000       0.012
  -0.15000000  0.35000000  0.15000000       0.012
   0.45000000  0.45000000  0.15000000       0.006
  -0.45000000  0.45000000  0.15000000       0.012
  -0.35000000  0.45000000  0.15000000       0.012
  -0.25000000  0.45000000  0.15000000       0.012
  -0.15000000  0.45000000  0.15000000       0.012
  -0.45000000 -0.45000000  0.15000000       0.006
  -0.35000000 -0.45000000  0.15000000       0.012
  -0.25000000 -0.45000000  0.15000000       0.012
  -0.35000000 -0.35000000  0.15000000       0.006
  -0.25000000 -0.35000000  0.15000000       0.012
  -0.25000000 -0.25000000  0.15000000       0.006
   0.25000000  0.25000000  0.25000000       0.002
   0.35000000  0.25000000  0.25000000       0.006
   0.45000000  0.25000000  0.25000000       0.006
  -0.45000000  0.25000000  0.25000000       0.006
  -0.35000000  0.25000000  0.25000000       0.006
  -0.25000000  0.25000000  0.25000000       0.006
   0.35000000  0.35000000  0.25000000       0.006
   0.45000000  0.35000000  0.25000000       0.012
  -0.45000000  0.35000000  0.25000000       0.012
  -0.35000000  0.35000000  0.25000000       0.012
  -0.25000000  0.35000000  0.25000000       0.012
   0.45000000  0.45000000  0.25000000       0.006
  -0.45000000  0.45000000  0.25000000       0.012
  -0.35000000  0.45000000  0.25000000       0.012
  -0.25000000  0.45000000  0.25000000       0.012
  -0.45000000 -0.45000000  0.25000000       0.006
  -0.35000000 -0.45000000  0.25000000       0.012
  -0.35000000 -0.35000000  0.25000000       0.006
   0.35000000  0.35000000  0.35000000       0.002
   0.45000000  0.35000000  0.35000000       0.006
  -0.45000000  0.35000000  0.35000000       0.006
  -0.35000000  0.35000000  0.35000000       0.006
   0.45000000  0.45000000  0.35000000       0.006
  -0.45000000  0.45000000  0.35000000       0.012
  -0.35000000  0.45000000  0.35000000       0.012
  -0.45000000 -0.45000000  0.35000000       0.006
   0.45000000  0.45000000  0.45000000       0.002
  -0.45000000  0.45000000  0.45000000       0.006
 
 position of ions in fractional coordinates (direct lattice) 
   0.00000000  0.00000000  0.00000000
 
 position of ions in cartesian coordinates  (Angst):
   0.00000000  0.00000000  0.00000000
 


--------------------------------------------------------------------------------------------------------


 k-point  1 :   0.0500 0.0500 0.0500  plane waves:     122
 k-point  2 :   0.1500 0.0500 0.0500  plane waves:     125
 k-point  3 :   0.2500 0.0500 0.0500  plane waves:     128
 k-point  4 :   0.3500 0.0500 0.0500  plane waves:     124
 k-point  5 :   0.4500 0.0500 0.0500  plane waves:     121
 k-point  6 :  -0.4500 0.0500 0.0500  plane waves:     120
 k-point  7 :  -0.3500 0.0500 0.0500  plane waves:     122
 k-point  8 :  -0.2500 0.0500 0.0500  plane waves:     129
 k-point  9 :  -0.1500 0.0500 0.0500  plane waves:     126
 k-point 10 :  -0.0500 0.0500 0.0500  plane waves:     123
 k-point 11 :   0.1500 0.1500 0.0500  plane waves:     125
 k-point 12 :   0.2500 0.1500 0.0500  plane waves:     128
 k-point 13 :   0.3500 0.1500 0.0500  plane waves:     126
 k-point 14 :   0.4500 0.1500 0.0500  plane waves:     122
 k-point 15 :  -0.4500 0.1500 0.0500  plane waves:     122
 k-point 16 :  -0.3500 0.1500 0.0500  plane waves:     123
 k-point 17 :  -0.2500 0.1500 0.0500  plane waves:     128
 k-point 18 :  -0.1500 0.1500 0.0500  plane waves:     126
 k-point 19 :  -0.0500 0.1500 0.0500  plane waves:     123
 k-point 20 :   0.2500 0.2500 0.0500  plane waves:     127
 k-point 21 :   0.3500 0.2500 0.0500  plane waves:     127
 k-point 22 :   0.4500 0.2500 0.0500  plane waves:     121
 k-point 23 :  -0.4500 0.2500 0.0500  plane waves:     120
 k-point 24 :  -0.3500 0.2500 0.0500  plane waves:     124
 k-point 25 :  -0.2500 0.2500 0.0500  plane waves:     123
 k-point 26 :  -0.1500 0.2500 0.0500  plane waves:     127
 k-point 27 :  -0.0500 0.2500 0.0500  plane waves:     127
 k-point 28 :   0.3500 0.3500 0.0500  plane waves:     128
 k-point 29 :   0.4500 0.3500 0.0500  plane waves:     121
 k-point 30 :  -0.4500 0.3500 0.0500  plane waves:     120
 k-point 31 :  -0.3500 0.3500 0.0500  plane waves:     119
 k-point 32 :  -0.2500 0.3500 0.0500  plane waves:     122
 k-point 33 :  -0.1500 0.3500 0.0500  plane waves:     124
 k-point 34 :  -0.0500 0.3500 0.0500  plane waves:     123
 k-point 35 :   0.4500 0.4500 0.0500  plane waves:     119
 k-point 36 :  -0.4500 0.4500 0.0500  plane waves:     117
 k-point 37 :  -0.3500 0.4500 0.0500  plane waves:     118
 k-point 38 :  -0.2500 0.4500 0.0500  plane waves:     120
 k-point 39 :  -0.1500 0.4500 0.0500  plane waves:     122
 k-point 40 :  -0.0500 0.4500 0.0500  plane waves:     123
 k-point 41 :  -0.4500-0.4500 0.0500  plane waves:     116
 k-point 42 :  -0.3500-0.4500 0.0500  plane waves:     120
 k-point 43 :  -0.2500-0.4500 0.0500  plane waves:     122
 k-point 44 :  -0.1500-0.4500 0.0500  plane waves:     121
 k-point 45 :  -0.3500-0.3500 0.0500  plane waves:     121
 k-point 46 :  -0.2500-0.3500 0.0500  plane waves:     123
 k-point 47 :  -0.1500-0.3500 0.0500  plane waves:     123
 k-point 48 :  -0.2500-0.2500 0.0500  plane waves:     126
 k-point 49 :  -0.1500-0.2500 0.0500  plane waves:     128
 k-point 50 :  -0.1500-0.1500 0.0500  plane waves:     129
 k-point 51 :   0.1500 0.1500 0.1500  plane waves:     122
 k-point 52 :   0.2500 0.1500 0.1500  plane waves:     126
 k-point 53 :   0.3500 0.1500 0.1500  plane waves:     129
 k-point 54 :   0.4500 0.1500 0.1500  plane waves:     125
 k-point 55 :  -0.4500 0.1500 0.1500  plane waves:     124
 k-point 56 :  -0.3500 0.1500 0.1500  plane waves:     123
 k-point 57 :  -0.2500 0.1500 0.1500  plane waves:     126
 k-point 58 :  -0.1500 0.1500 0.1500  plane waves:     126
 k-point 59 :   0.2500 0.2500 0.1500  plane waves:     129
 k-point 60 :   0.3500 0.2500 0.1500  plane waves:     126
 k-point 61 :   0.4500 0.2500 0.1500  plane waves:     125
 k-point 62 :  -0.4500 0.2500 0.1500  plane waves:     121
 k-point 63 :  -0.3500 0.2500 0.1500  plane waves:     120
 k-point 64 :  -0.2500 0.2500 0.1500  plane waves:     120
 k-point 65 :  -0.1500 0.2500 0.1500  plane waves:     124
 k-point 66 :   0.3500 0.3500 0.1500  plane waves:     124
 k-point 67 :   0.4500 0.3500 0.1500  plane waves:     124
 k-point 68 :  -0.4500 0.3500 0.1500  plane waves:     121
 k-point 69 :  -0.3500 0.3500 0.1500  plane waves:     117
 k-point 70 :  -0.2500 0.3500 0.1500  plane waves:     118
 k-point 71 :  -0.1500 0.3500 0.1500  plane waves:     123
 k-point 72 :   0.4500 0.4500 0.1500  plane waves:     122
 k-point 73 :  -0.4500 0.4500 0.1500  plane waves:     121
 k-point 74 :  -0.3500 0.4500 0.1500  plane waves:     117
 k-point 75 :  -0.2500 0.4500 0.1500  plane waves:     116
 k-point 76 :  -0.1500 0.4500 0.1500  plane waves:     119
 k-point 77 :  -0.4500-0.4500 0.1500  plane waves:     117
 k-point 78 :  -0.3500-0.4500 0.1500  plane waves:     119
 k-point 79 :  -0.2500-0.4500 0.1500  plane waves:     119
 k-point 80 :  -0.3500-0.3500 0.1500  plane waves:     120
 k-point 81 :  -0.2500-0.3500 0.1500  plane waves:     122
 k-point 82 :  -0.2500-0.2500 0.1500  plane waves:     122
 k-point 83 :   0.2500 0.2500 0.2500  plane waves:     126
 k-point 84 :   0.3500 0.2500 0.2500  plane waves:     128
 k-point 85 :   0.4500 0.2500 0.2500  plane waves:     125
 k-point 86 :  -0.4500 0.2500 0.2500  plane waves:     124
 k-point 87 :  -0.3500 0.2500 0.2500  plane waves:     123
 k-point 88 :  -0.2500 0.2500 0.2500  plane waves:     121
 k-point 89 :   0.3500 0.3500 0.2500  plane waves:     126
 k-point 90 :   0.4500 0.3500 0.2500  plane waves:     124
 k-point 91 :  -0.4500 0.3500 0.2500  plane waves:     121
 k-point 92 :  -0.3500 0.3500 0.2500  plane waves:     120
 k-point 93 :  -0.2500 0.3500 0.2500  plane waves:     119
 k-point 94 :   0.4500 0.4500 0.2500  plane waves:     122
 k-point 95 :  -0.4500 0.4500 0.2500  plane waves:     117
 k-point 96 :  -0.3500 0.4500 0.2500  plane waves:     116
 k-point 97 :  -0.2500 0.4500 0.2500  plane waves:     115
 k-point 98 :  -0.4500-0.4500 0.2500  plane waves:     119
 k-point 99 :  -0.3500-0.4500 0.2500  plane waves:     118
 k-point ** :  -0.3500-0.3500 0.2500  plane waves:     118
 k-point ** :   0.3500 0.3500 0.3500  plane waves:     117
 k-point ** :   0.4500 0.3500 0.3500  plane waves:     124
 k-point ** :  -0.4500 0.3500 0.3500  plane waves:     124
 k-point ** :  -0.3500 0.3500 0.3500  plane waves:     122
 k-point ** :   0.4500 0.4500 0.3500  plane waves:     123
 k-point ** :  -0.4500 0.4500 0.3500  plane waves:     120
 k-point ** :  -0.3500 0.4500 0.3500  plane waves:     119
 k-point ** :  -0.4500-0.4500 0.3500  plane waves:     123
 k-point ** :   0.4500 0.4500 0.4500  plane waves:     120
 k-point ** :  -0.4500 0.4500 0.4500  plane waves:     120

 maximum and minimum number of plane-waves per node :       129      115

 maximum number of plane-waves:       129
 maximum index in each direction: 
   IXMAX=    3   IYMAX=    3   IZMAX=    3
   IXMIN=   -3   IYMIN=   -3   IZMIN=   -3


 serial   3D FFT for wavefunctions
 parallel 3D FFT for charge:
    minimum data exchange during FFTs selected (reduces bandwidth)


 total amount of memory used by VASP MPI-rank0    33243. kBytes
=======================================================================

   base      :      30000. kBytes
   nonl-proj :       2092. kBytes
   fftplans  :        142. kBytes
   grid      :        192. kBytes
   one-center:         15. kBytes
   wavefun   :        802. kBytes
 
     INWAV:  cpu time    0.0191: real time    0.0428
 Broyden mixing: mesh for mixing (old mesh)
   NGX =  7   NGY =  7   NGZ =  7
  (NGX  = 20   NGY  = 20   NGZ  = 20)
  gives a total of    343 points

 charge density for first step will be calculated from the start-wavefunctions


--------------------------------------------------------------------------------------------------------


 Maximum index for augmentation-charges          973 (set IRDMAX)


--------------------------------------------------------------------------------------------------------


 initial charge from wavefunction
 First call to EWALD:  gamma=   0.712
 Maximum number of real-space cells 3x 3x 3
 Maximum number of reciprocal cells 3x 3x 3

    FEWALD:  cpu time    0.0014: real time    0.0060


--------------------------------------- Iteration      1(   1)  ---------------------------------------


    POTLOK:  cpu time    0.0013: real time    0.0180
    SETDIJ:  cpu time    0.0014: real time    0.0013
     EDDAV:  cpu time    0.2285: real time    0.4539
       DOS:  cpu time    0.0012: real time    0.0014
    CHARGE:  cpu time    0.0029: real time    0.0068
    MIXING:  cpu time    0.0003: real time    0.0005
    --------------------------------------------
      LOOP:  cpu time    0.2357: real time    0.4819

 eigenvalue-minimisations  :  3068
 total energy-change (2. order) :-0.5962552E+01  (-0.2404396E+01)
 number of electron      11.0000001 magnetization 
 augmentation part        3.5757396 magnetization 

 Broyden mixing:
  rms(total) = 0.74206E+00    rms(broyden)= 0.74196E+00
  rms(prec ) = 0.27448E+01
  weight for this iteration     100.00

 Free energy of the ion-electron system (eV)
  ---------------------------------------------------
  alpha Z        PSCENC =       119.28496302
  Ewald energy   TEWEN  =     -1011.20830427
  -Hartree energ DENC   =      -118.04777399
  -exchange      EXHF   =         0.00000000
  -V(xc)+E(xc)   XCENC  =        16.99342903
  PAW double counting   =       791.14471321     -774.21009958
  entropy T*S    EENTRO =        -0.00165044
  eigenvalues    EBANDS =        40.68583901
  atomic energy  EATOM  =       929.39633208
  Solvation  Ediel_sol  =         0.00000000
  ---------------------------------------------------
  free energy    TOTEN  =        -5.96255193 eV

  energy without entropy =       -5.96090149  energy(sigma->0) =       -5.96200178


--------------------------------------------------------------------------------------------------------




--------------------------------------- Iteration      1(   2)  ---------------------------------------


    POTLOK:  cpu time    0.0012: real time    0.0012
    SETDIJ:  cpu time    0.0008: real time    0.0011
     EDDAV:  cpu time    0.2426: real time    0.6011
       DOS:  cpu time    0.0014: real time    0.0014
    CHARGE:  cpu time    0.0031: real time    0.0088
    MIXING:  cpu time    0.0003: real time    0.0004
    --------------------------------------------
      LOOP:  cpu time    0.2494: real time    0.6140

 eigenvalue-minimisations  :  2988
 total energy-change (2. order) : 0.1577884E+01  (-0.4028272E+00)
 number of electron      11.0000000 magnetization 
 augmentation part        3.8948261 magnetization 

 Broyden mixing:
  rms(total) = 0.15775E+00    rms(broyden)= 0.15772E+00
  rms(prec ) = 0.54639E+00
  weight for this iteration     100.00

 eigenvalues of (default mixing * dielectric matrix)
  average eigenvalue GAMMA=   1.2677
  1.2677

 Free energy of the ion-electron system (eV)
  ---------------------------------------------------
  alpha Z        PSCENC =       119.28496302
  Ewald energy   TEWEN  =     -1011.20830427
  -Hartree energ DENC   =      -102.50373653
  -exchange      EXHF   =         0.00000000
  -V(xc)+E(xc)   XCENC  =        16.22371892
  PAW double counting   =       767.51897491     -750.72287738
  entropy T*S    EENTRO =        -0.00050096
  eigenvalues    EBANDS =        27.62676219
  atomic energy  EATOM  =       929.39633208
  Solvation  Ediel_sol  =         0.00000000
  ---------------------------------------------------
  free energy    TOTEN  =        -4.38466802 eV

  energy without entropy =       -4.38416706  energy(sigma->0) =       -4.38450104


--------------------------------------------------------------------------------------------------------




--------------------------------------- Iteration      1(   3)  ---------------------------------------


    POTLOK:  cpu time    0.0011: real time    0.0012
    SETDIJ:  cpu time    0.0007: real time    0.0056
     EDDAV:  cpu time    0.2963: real time    0.9137
       DOS:  cpu time    0.0014: real time    0.0014
    CHARGE:  cpu time    0.0028: real time    0.0029
    MIXING:  cpu time    0.0006: real time    0.0027
    --------------------------------------------
      LOOP:  cpu time    0.3029: real time    0.9275

 eigenvalue-minimisations  :  3132
 total energy-change (2. order) : 0.6840512E-01  (-0.2970793E-01)
 number of electron      11.0000000 magnetization 
 augmentation part        3.9787081 magnetization 

 Broyden mixing:
  rms(total) = 0.15075E-01    rms(broyden)= 0.14968E-01
  rms(prec ) = 0.37545E-01
  weight for this iteration     100.00

 eigenvalues of (default mixing * dielectric matrix)
  average eigenvalue GAMMA=   1.8566
  1.2703  2.4430

 Free energy of the ion-electron system (eV)
  ---------------------------------------------------
  alpha Z        PSCENC =       119.28496302
  Ewald energy   TEWEN  =     -1011.20830427
  -Hartree energ DENC   =       -98.88304529
  -exchange      EXHF   =         0.00000000
  -V(xc)+E(xc)   XCENC  =        16.05002813
  PAW double counting   =       765.03165562     -748.06079831
  entropy T*S    EENTRO =         0.00015598
  eigenvalues    EBANDS =        24.07275015
  atomic energy  EATOM  =       929.39633208
  Solvation  Ediel_sol  =         0.00000000
  ---------------------------------------------------
  free energy    TOTEN  =        -4.31626290 eV

  energy without entropy =       -4.31641888  energy(sigma->0) =       -4.31631490


--------------------------------------------------------------------------------------------------------




--------------------------------------- Iteration      1(   4)  ---------------------------------------


    POTLOK:  cpu time    0.0013: real time    0.0071
    SETDIJ:  cpu time    0.0004: real time    0.0012
     EDDAV:  cpu time    0.2708: real time    0.8266
       DOS:  cpu time    0.0014: real time    0.0014
    CHARGE:  cpu time    0.0027: real time    0.0034
    MIXING:  cpu time    0.0005: real time    0.0011
    --------------------------------------------
      LOOP:  cpu time    0.2772: real time    0.8408

 eigenvalue-minimisations  :  2864
 total energy-change (2. order) :-0.1061179E-02  (-0.1994796E-03)
 number of electron      10.9999999 magnetization 
 augmentation part        3.9782793 magnetization 

 Broyden mixing:
  rms(total) = 0.33043E-02    rms(broyden)= 0.32843E-02
  rms(prec ) = 0.61284E-02
  weight for this iteration     100.00

 eigenvalues of (default mixing * dielectric matrix)
  average eigenvalue GAMMA=   1.6870
  1.1779  1.2134  2.6696

 Free energy of the ion-electron system (eV)
  ---------------------------------------------------
  alpha Z        PSCENC =       119.28496302
  Ewald energy   TEWEN  =     -1011.20830427
  -Hartree energ DENC   =       -99.23711542
  -exchange      EXHF   =         0.00000000
  -V(xc)+E(xc)   XCENC  =        16.07021660
  PAW double counting   =       770.19979341     -752.97376979
  entropy T*S    EENTRO =         0.00014620
  eigenvalues    EBANDS =        24.15041409
  atomic energy  EATOM  =       929.39633208
  Solvation  Ediel_sol  =         0.00000000
  ---------------------------------------------------
  free energy    TOTEN  =        -4.31732408 eV

  energy without entropy =       -4.31747028  energy(sigma->0) =       -4.31737282


--------------------------------------------------------------------------------------------------------




--------------------------------------- Iteration      1(   5)  ---------------------------------------


    POTLOK:  cpu time    0.0013: real time    0.0021
    SETDIJ:  cpu time    0.0006: real time    0.0064
     EDDAV:  cpu time    0.2232: real time    0.6892
       DOS:  cpu time    0.0013: real time    0.0013
    --------------------------------------------
      LOOP:  cpu time    0.2264: real time    0.6990

 eigenvalue-minimisations  :  1876
 total energy-change (2. order) :-0.1602448E-05  (-0.4208085E-05)
 number of electron      10.9999999 magnetization 
 augmentation part        3.9782793 magnetization 

 Free energy of the ion-electron system (eV)
  ---------------------------------------------------
  alpha Z        PSCENC =       119.28496302
  Ewald energy   TEWEN  =     -1011.20830427
  -Hartree energ DENC   =       -99.25099176
  -exchange      EXHF   =         0.00000000
  -V(xc)+E(xc)   XCENC  =        16.07149128
  PAW double counting   =       771.07423398     -753.79966748
  entropy T*S    EENTRO =         0.00015502
  eigenvalues    EBANDS =        24.11446245
  atomic energy  EATOM  =       929.39633208
  Solvation  Ediel_sol  =         0.00000000
  ---------------------------------------------------
  free energy    TOTEN  =        -4.31732569 eV

  energy without entropy =       -4.31748071  energy(sigma->0) =       -4.31737736


--------------------------------------------------------------------------------------------------------




 average (electrostatic) potential at core
  the test charge radii are     1.2098
  (the norm of the test charge is              1.0000)
       1 -44.7835
 
 
 
 E-fermi :   7.0135     XC(G=0): -13.5728     alpha+bet :-11.3828


 k-point     1 :       0.0500    0.0500    0.0500
  band No.  band energies     occupation 
      1      -3.9945      2.00000
      2       1.6251      2.00000
      3       1.6978      2.00000
      4       1.6978      2.00000
      5       3.4796      2.00000
      6       3.4796      2.00000
      7      22.3845      0.00000
      8      26.0289      0.00000
      9      26.8378      0.00000
     10      26.8378      0.00000
     11      31.8881      0.00000
     12      35.7796      0.00000

 k-point     2 :       0.1500    0.0500    0.0500
  band No.  band energies     occupation 
      1      -3.4970      2.00000
      2       1.4388      2.00000
      3       1.8582      2.00000
      4       1.8948      2.00000
      5       3.2981      2.00000
      6       3.5358      2.00000
      7      22.9042      0.00000
      8      24.0072      0.00000
      9      26.6044      0.00000
     10      27.8677      0.00000
     11      31.7553      0.00000
     12      34.5261      0.00000

 k-point     3 :       0.2500    0.0500    0.0500
  band No.  band energies     occupation 
      1      -2.4326      2.00000
      2       1.2915      2.00000
      3       2.0325      2.00000
      4       2.0606      2.00000
      5       3.3042      2.00000
      6       3.7858      2.00000
      7      20.3063      0.00000
      8      23.5850      0.00000
      9      27.0507      0.00000
     10      29.3653      0.00000
     11      29.4950      0.00000
     12      32.2417      0.00000

 k-point     4 :       0.3500    0.0500    0.0500
  band No.  band energies     occupation 
      1      -1.5176      2.00000
      2       1.8175      2.00000
      3       1.9232      2.00000
      4       2.0389      2.00000
      5       3.8865      2.00000
      6       4.4558      2.00000
      7      16.2452      0.00000
      8      22.8106      0.00000
      9      26.1533      0.00000
     10      28.5365      0.00000
     11      30.5752      0.00000
     12      31.9137      0.00000

 k-point     5 :       0.4500    0.0500    0.0500
  band No.  band energies     occupation 
      1      -1.3164      2.00000
      2       1.6415      2.00000
      3       1.7243      2.00000
      4       3.7129      2.00000
      5       4.6000      2.00000
      6       5.3771      2.00000
      7      12.3407     -0.00000
      8      21.9093      0.00000
      9      25.0622      0.00000
     10      26.2273      0.00000
     11      32.7388      0.00000
     12      33.1778      0.00000

 k-point     6 :      -0.4500    0.0500    0.0500
  band No.  band energies     occupation 
      1      -1.3194      2.00000
      2       1.5628      2.00000
      3       1.6778      2.00000
      4       4.2562      2.00000
      5       4.9452      2.00000
      6       6.1225      2.00000
      7      10.6761     -0.00000
      8      21.6615      0.00000
      9      25.0850      0.00000
     10      25.1916      0.00000
     11      33.4055      0.00000
     12      33.5090      0.00000

 k-point     7 :      -0.3500    0.0500    0.0500
  band No.  band energies     occupation 
      1      -1.3362      2.00000
      2       1.6764      2.00000
      3       1.8094      2.00000
      4       3.0752      2.00000
      5       4.6997      2.00000
      6       4.7771      2.00000
      7      13.5529      0.00000
      8      22.1672      0.00000
      9      25.5974      0.00000
     10      26.4927      0.00000
     11      32.6931      0.00000
     12      32.7630      0.00000

 k-point     8 :      -0.2500    0.0500    0.0500
  band No.  band energies     occupation 
      1      -1.7423      2.00000
      2       1.5712      2.00000
      3       1.9353      2.00000
      4       2.0122      2.00000
      5       3.7710      2.00000
      6       4.0970      2.00000
      7      17.6214      0.00000
      8      23.2113      0.00000
      9      26.7241      0.00000
     10      28.6361      0.00000
     11      30.3159      0.00000
     12      32.0833      0.00000

 k-point     9 :      -0.1500    0.0500    0.0500
  band No.  band energies     occupation 
      1      -2.8211      2.00000
      2       1.2824      2.00000
      3       2.0242      2.00000
      4       2.0401      2.00000
      5       3.2542      2.00000
      6       3.6410      2.00000
      7      21.5725      0.00000
      8      23.6087      0.00000
      9      27.0241      0.00000
     10      28.4106      0.00000
     11      30.3793      0.00000
     12      32.9376      0.00000

 k-point    10 :      -0.0500    0.0500    0.0500
  band No.  band energies     occupation 
      1      -3.7412      2.00000
      2       1.4949      2.00000
      3       1.8089      2.00000
      4       1.8136      2.00000
      5       3.3277      2.00000
      6       3.5472      2.00000
      7      22.6952      0.00000
      8      25.0937      0.00000
      9      26.6721      0.00000
     10      27.0125      0.00000
     11      32.7978      0.00000
     12      34.8644      0.00000

 k-point    11 :       0.1500    0.1500    0.0500
  band No.  band energies     occupation 
      1      -3.2504      2.00000
      2       1.2375      2.00000
      3       2.0407      2.00000
      4       2.0453      2.00000
      5       3.0639      2.00000
      6       3.6764      2.00000
      7      23.2478      0.00000
      8      24.2021      0.00000
      9      26.1528      0.00000
     10      26.6904      0.00000
     11      32.3848      0.00000
     12      33.8114      0.00000

 k-point    12 :       0.2500    0.1500    0.0500
  band No.  band energies     occupation 
      1      -2.3630      2.00000
      2       0.9441      2.00000
      3       2.1504      2.00000
      4       2.3701      2.00000
      5       2.9958      2.00000
      6       3.9360      2.00000
      7      21.8489      0.00000
      8      23.6095      0.00000
      9      25.6247      0.00000
     10      26.9326      0.00000
     11      30.3351      0.00000
     12      32.9447      0.00000

 k-point    13 :       0.3500    0.1500    0.0500
  band No.  band energies     occupation 
      1      -1.2972      2.00000
      2       1.0380      2.00000
      3       1.7886      2.00000
      4       2.3809      2.00000
      5       3.7678      2.00000
      6       4.6139      2.00000
      7      17.8642      0.00000
      8      23.0880      0.00000
      9      24.5803      0.00000
     10      27.0569      0.00000
     11      30.8756      0.00000
     12      32.5022      0.00000

 k-point    14 :       0.4500    0.1500    0.0500
  band No.  band energies     occupation 
      1      -0.9199      2.00000
      2       1.4305      2.00000
      3       2.0457      2.00000
      4       2.2355      2.00000
      5       4.6692      2.00000
      6       5.8891      2.00000
      7      13.7217      0.00000
      8      22.3437      0.00000
      9      23.4343      0.00000
     10      25.7335      0.00000
     11      32.5743      0.00000
     12      33.9222      0.00000

 k-point    15 :      -0.4500    0.1500    0.0500
  band No.  band energies     occupation 
      1      -0.9090      2.00000
      2       1.2798      2.00000
      3       2.0257      2.00000
      4       3.0451      2.00000
      5       4.8871      2.00000
      6       7.7612     -0.00000
      7      10.6184     -0.00000
      8      21.8360      0.00000
      9      23.1103      0.00000
     10      24.7577      0.00000
     11      33.3083      0.00000
     12      34.2833      0.00000

 k-point    16 :      -0.3500    0.1500    0.0500
  band No.  band energies     occupation 
      1      -0.8830      2.00000
      2       1.3759      2.00000
      3       2.0549      2.00000
      4       2.6610      2.00000
      5       4.4976      2.00000
      6       6.6512      2.02797
      7      12.5402      0.00000
      8      21.7377      0.00000
      9      23.2704      0.00000
     10      25.8808      0.00000
     11      32.2450      0.00000
     12      34.0045      0.00000

 k-point    17 :      -0.2500    0.1500    0.0500
  band No.  band energies     occupation 
      1      -1.0471      2.00000
      2       1.3639      2.00000
      3       1.7195      2.00000
      4       2.2774      2.00000
      5       3.6696      2.00000
      6       5.2304      2.00000
      7      16.4848      0.00000
      8      22.1424      0.00000
      9      24.3519      0.00000
     10      28.0008      0.00000
     11      30.2124      0.00000
     12      33.0440      0.00000

 k-point    18 :      -0.1500    0.1500    0.0500
  band No.  band energies     occupation 
      1      -1.9804      2.00000
      2       0.9935      2.00000
      3       2.0227      2.00000
      4       2.3982      2.00000
      5       2.9918      2.00000
      6       4.2433      2.00000
      7      20.4462      0.00000
      8      22.8288      0.00000
      9      26.1247      0.00000
     10      27.1852      0.00000
     11      31.0647      0.00000
     12      32.1735      0.00000

 k-point    19 :      -0.0500    0.1500    0.0500
  band No.  band energies     occupation 
      1      -3.0244      2.00000
      2       1.2416      2.00000
      3       2.0426      2.00000
      4       2.0574      2.00000
      5       3.1128      2.00000
      6       3.6869      2.00000
      7      22.7627      0.00000
      8      23.4589      0.00000
      9      26.2073      0.00000
     10      28.0514      0.00000
     11      30.7608      0.00000
     12      33.9229      0.00000

 k-point    20 :       0.2500    0.2500    0.0500
  band No.  band energies     occupation 
      1      -1.7796      2.00000
      2       0.5266      2.00000
      3       2.3212      2.00000
      4       2.8181      2.00000
      5       3.0403      2.00000
      6       4.0817      2.00000
      7      22.4084      0.00000
      8      23.6544      0.00000
      9      24.4323      0.00000
     10      25.3705      0.00000
     11      27.4852      0.00000
     12      34.1589      0.00000

 k-point    21 :       0.3500    0.2500    0.0500
  band No.  band energies     occupation 
      1      -0.9428      2.00000
      2       0.2638      2.00000
      3       2.0145      2.00000
      4       3.2254      2.00000
      5       3.8046      2.00000
      6       4.6382      2.00000
      7      19.6433      0.00000
      8      21.6723      0.00000
      9      23.2746      0.00000
     10      26.1196      0.00000
     11      27.6102      0.00000
     12      34.2787      0.00000

 k-point    22 :       0.4500    0.2500    0.0500
  band No.  band energies     occupation 
      1      -0.4706      2.00000
      2       0.5560      2.00000
      3       1.7272      2.00000
      4       3.0670      2.00000
      5       4.7788      2.00000
      6       6.2018      2.00000
      7      15.3673      0.00000
      8      20.9859      0.00000
      9      21.4799      0.00000
     10      25.6515      0.00000
     11      30.9080      0.00000
     12      34.4076      0.00000

 k-point    23 :      -0.4500    0.2500    0.0500
  band No.  band energies     occupation 
      1      -0.3434      2.00000
      2       0.8509      2.00000
      3       1.9495      2.00000
      4       2.8291      2.00000
      5       4.9286      2.00000
      6       8.8474     -0.00000
      7      11.5909     -0.00000
      8      19.6618      0.00000
      9      21.5615      0.00000
     10      25.0686      0.00000
     11      33.4870      0.00000
     12      35.3781      0.00000

 k-point    24 :      -0.3500    0.2500    0.0500
  band No.  band energies     occupation 
      1      -0.1405      2.00000
      2       0.9297      2.00000
      3       1.9598      2.00000
      4       2.7058      2.00000
      5       4.4448      2.00000
      6       8.6764     -0.00000
      7      12.2100     -0.00000
      8      18.5108      0.00000
      9      22.7880      0.00000
     10      25.2557      0.00000
     11      32.4992      0.00000
     12      35.0068      0.00000

 k-point    25 :      -0.2500    0.2500    0.0500
  band No.  band energies     occupation 
      1      -0.0268      2.00000
      2       1.0348      2.00000
      3       1.3110      2.00000
      4       2.8011      2.00000
      5       3.6253      2.00000
      6       6.8067      2.05658
      7      15.7447      0.00000
      8      18.4708      0.00000
      9      23.8717      0.00000
     10      27.0637      0.00000
     11      30.0167      0.00000
     12      34.9208      0.00000

 k-point    26 :      -0.1500    0.2500    0.0500
  band No.  band energies     occupation 
      1      -0.8584      2.00000
      2       0.8996      2.00000
      3       1.6899      2.00000
      4       2.6611      2.00000
      5       3.1524      2.00000
      6       5.3422      2.00000
      7      17.9586      0.00000
      8      20.8126      0.00000
      9      24.8143      0.00000
     10      28.0053      0.00000
     11      29.6381      0.00000
     12      33.6643      0.00000

 k-point    27 :      -0.0500    0.2500    0.0500
  band No.  band energies     occupation 
      1      -1.8993      2.00000
      2       1.2000      2.00000
      3       1.9923      2.00000
      4       2.1735      2.00000
      5       3.3738      2.00000
      6       4.1564      2.00000
      7      19.0822      0.00000
      8      23.4427      0.00000
      9      26.0195      0.00000
     10      28.3263      0.00000
     11      30.5705      0.00000
     12      31.7249      0.00000

 k-point    28 :       0.3500    0.3500    0.0500
  band No.  band energies     occupation 
      1      -0.8323      2.00000
      2      -0.1765      2.00000
      3       3.0072      2.00000
      4       3.8534      2.00000
      5       4.3198      2.00000
      6       4.5736      2.00000
      7      19.5936      0.00000
      8      20.5074      0.00000
      9      20.9812      0.00000
     10      24.9704      0.00000
     11      26.9242      0.00000
     12      36.7158      0.00000

 k-point    29 :       0.4500    0.3500    0.0500
  band No.  band energies     occupation 
      1      -0.6968      2.00000
      2      -0.3014      2.00000
      3       3.0760      2.00000
      4       4.2054      2.00000
      5       4.7965      2.00000
      6       6.2166      2.00000
      7      16.6573      0.00000
      8      18.7951      0.00000
      9      19.4204      0.00000
     10      26.0640      0.00000
     11      28.0447      0.00000
     12      36.3648      0.00000

 k-point    30 :      -0.4500    0.3500    0.0500
  band No.  band energies     occupation 
      1      -0.5133      2.00000
      2       0.0553      2.00000
      3       2.6635      2.00000
      4       3.8451      2.00000
      5       5.0467      2.00000
      6       9.0846     -0.00000
      7      13.1718      0.00000
      8      17.1144      0.00000
      9      19.4880      0.00000
     10      26.2391      0.00000
     11      30.9219      0.00000
     12      35.3468      0.00000

 k-point    31 :      -0.3500    0.3500    0.0500
  band No.  band energies     occupation 
      1      -0.1731      2.00000
      2       0.6351      2.00000
      3       2.0316      2.00000
      4       3.4507      2.00000
      5       4.6535      2.00000
      6      10.3873     -0.00000
      7      12.6156      0.00000
      8      15.3677      0.00000
      9      20.9777      0.00000
     10      25.8628      0.00000
     11      33.8663      0.00000
     12      34.6362      0.00000

 k-point    32 :      -0.2500    0.3500    0.0500
  band No.  band energies     occupation 
      1       0.1711      2.00000
      2       0.9734      2.00000
      3       1.4551      2.00000
      4       3.0256      2.00000
      5       4.1595      2.00000
      6       8.5176     -0.00000
      7      14.1571      0.00000
      8      16.3714      0.00000
      9      22.8516      0.00000
     10      25.6808      0.00000
     11      32.0120      0.00000
     12      35.2210      0.00000

 k-point    33 :      -0.1500    0.3500    0.0500
  band No.  band energies     occupation 
      1      -0.4734      2.00000
      2       1.2560      2.00000
      3       1.8073      2.00000
      4       2.4406      2.00000
      5       4.0537      2.00000
      6       6.7644      2.07079
      7      14.1075      0.00000
      8      20.2218      0.00000
      9      23.5077      0.00000
     10      26.4925      0.00000
     11      31.0185      0.00000
     12      34.4324      0.00000

 k-point    34 :      -0.0500    0.3500    0.0500
  band No.  band energies     occupation 
      1      -1.2369      2.00000
      2       1.6783      2.00000
      3       1.9710      2.00000
      4       2.2038      2.00000
      5       4.2073      2.00000
      6       5.0182      2.00000
      7      14.9499      0.00000
      8      22.5437      0.00000
      9      24.8073      0.00000
     10      27.2760      0.00000
     11      31.5158      0.00000
     12      32.7917      0.00000

 k-point    35 :       0.4500    0.4500    0.0500
  band No.  band energies     occupation 
      1      -1.0071      2.00000
      2      -0.6366      2.00000
      3       4.6311      2.00000
      4       4.6791      2.00000
      5       5.0839      2.00000
      6       6.5963      2.01199
      7      15.4063      0.00000
      8      17.8719      0.00000
      9      18.1829      0.00000
     10      25.3880      0.00000
     11      27.9882      0.00000
     12      37.6511      0.00000

 k-point    36 :      -0.4500    0.4500    0.0500
  band No.  band energies     occupation 
      1      -0.9296      2.00000
      2      -0.5772      2.00000
      3       4.1656      2.00000
      4       4.6182      2.00000
      5       5.2613      2.00000
      6       8.7604     -0.00000
      7      13.4403      0.00000
      8      16.8151      0.00000
      9      17.7833      0.00000
     10      26.4119      0.00000
     11      28.5398      0.00000
     12      36.7368      0.00000

 k-point    37 :      -0.3500    0.4500    0.0500
  band No.  band energies     occupation 
      1      -0.5800      2.00000
      2      -0.0484      2.00000
      3       2.9990      2.00000
      4       4.0501      2.00000
      5       5.0410      2.00000
      6      10.5583     -0.00000
      7      12.3132     -0.00000
      8      15.6892      0.00000
      9      19.1096      0.00000
     10      26.4969      0.00000
     11      30.9564      0.00000
     12      35.4489      0.00000

 k-point    38 :      -0.2500    0.4500    0.0500
  band No.  band energies     occupation 
      1      -0.2049      2.00000
      2       0.6877      2.00000
      3       1.9818      2.00000
      4       3.1889      2.00000
      5       4.8041      2.00000
      6      10.5995     -0.00000
      7      10.9288     -0.00000
      8      17.4562      0.00000
      9      21.1719      0.00000
     10      25.5165      0.00000
     11      33.6567      0.00000
     12      35.0338      0.00000

 k-point    39 :      -0.1500    0.4500    0.0500
  band No.  band energies     occupation 
      1      -0.5484      2.00000
      2       1.0698      2.00000
      3       2.3364      2.00000
      4       2.5125      2.00000
      5       4.7327      2.00000
      6       8.7039     -0.00000
      7      10.7366     -0.00000
      8      20.5609      0.00000
      9      22.7061      0.00000
     10      24.8085      0.00000
     11      33.0660      0.00000
     12      34.6818      0.00000

 k-point    40 :      -0.0500    0.4500    0.0500
  band No.  band energies     occupation 
      1      -1.1718      2.00000
      2       1.4867      2.00000
      3       1.8136      2.00000
      4       3.5186      2.00000
      5       4.8313      2.00000
      6       6.4194      2.00022
      7      11.3319     -0.00000
      8      21.8820      0.00000
      9      24.2177      0.00000
     10      25.3969      0.00000
     11      33.1422      0.00000
     12      33.7080      0.00000

 k-point    41 :      -0.4500   -0.4500    0.0500
  band No.  band energies     occupation 
      1      -1.0987      2.00000
      2      -0.7342      2.00000
      3       4.8228      2.00000
      4       4.9926      2.00000
      5       5.2766      2.00000
      6       7.7974     -0.00000
      7      13.7592      0.00000
      8      17.2850      0.00000
      9      17.6456      0.00000
     10      25.5682      0.00000
     11      28.2084      0.00000
     12      37.4140      0.00000

 k-point    42 :      -0.3500   -0.4500    0.0500
  band No.  band energies     occupation 
      1      -0.8354      2.00000
      2      -0.4835      2.00000
      3       3.7341      2.00000
      4       4.5322      2.00000
      5       5.0739      2.00000
      6       7.5361     -0.00138
      7      14.9198      0.00000
      8      17.5080      0.00000
      9      18.3163      0.00000
     10      26.2533      0.00000
     11      28.3678      0.00000
     12      36.7147      0.00000

 k-point    43 :      -0.2500   -0.4500    0.0500
  band No.  band energies     occupation 
      1      -0.4373      2.00000
      2       0.2652      2.00000
      3       2.1663      2.00000
      4       3.4815      2.00000
      5       4.9868      2.00000
      6       7.5394     -0.00127
[...]
      6       7.7409     -0.00000
      7      14.8696      0.00000
      8      17.3675      0.00000
      9      22.2362      0.00000
     10      27.2388      0.00000
     11      30.5757      0.00000
     12      35.8231      0.00000

 k-point    92 :      -0.3500    0.3500    0.2500
  band No.  band energies     occupation 
      1       0.2123      2.00000
      2       0.7705      2.00000
      3       1.4708      2.00000
      4       3.2469      2.00000
      5       4.5782      2.00000
      6       9.6546     -0.00000
      7      13.4851      0.00000
      8      15.6585      0.00000
      9      20.7226      0.00000
     10      26.9608      0.00000
     11      32.1756      0.00000
     12      36.5999      0.00000

 k-point    93 :      -0.2500    0.3500    0.2500
  band No.  band energies     occupation 
      1      -0.1743      2.00000
      2       0.4358      2.00000
      3       1.9545      2.00000
      4       3.5416      2.00000
      5       4.9365      2.00000
      6       9.9818     -0.00000
      7      12.3605     -0.00000
      8      17.0556      0.00000
      9      19.3901      0.00000
     10      27.0149      0.00000
     11      32.2854      0.00000
     12      34.3551      0.00000

 k-point    94 :       0.4500    0.4500    0.2500
  band No.  band energies     occupation 
      1      -0.5679      2.00000
      2       0.9456      2.00000
      3       1.7511      2.00000
      4       2.6844      2.00000
      5       5.0006      2.00000
      6       6.5800      2.00897
      7      13.8678      0.00000
      8      21.4610      0.00000
      9      22.3047      0.00000
     10      24.6519      0.00000
     11      33.0205      0.00000
     12      34.3548      0.00000

 k-point    95 :      -0.4500    0.4500    0.2500
  band No.  band energies     occupation 
      1      -0.1614      2.00000
      2       0.6317      2.00000
      3       1.6518      2.00000
      4       3.2782      2.00000
      5       4.8233      2.00000
      6       8.3978     -0.00000
      7      13.1262      0.00000
      8      18.9353      0.00000
      9      20.1842      0.00000
     10      26.5574      0.00000
     11      31.9467      0.00000
     12      34.7246      0.00000

 k-point    96 :      -0.3500    0.4500    0.2500
  band No.  band energies     occupation 
      1       0.2430      2.00000
      2       0.7228      2.00000
      3       1.2520      2.00000
      4       3.4079      2.00000
      5       4.9906      2.00000
      6      10.3663     -0.00000
      7      13.5194      0.00000
      8      15.5132      0.00000
      9      18.4846      0.00000
     10      29.3026      0.00000
     11      31.0388      0.00000
     12      34.8836      0.00000

 k-point    97 :      -0.2500    0.4500    0.2500
  band No.  band energies     occupation 
      1       0.1000      2.00000
      2       0.7297      2.00000
      3       1.4329      2.00000
      4       3.3550      2.00000
      5       5.2557      2.00000
      6      11.7678     -0.00000
      7      13.1226      0.00000
      8      14.5675      0.00000
      9      17.4617      0.00000
     10      30.1605      0.00000
     11      31.6758      0.00000
     12      33.3886      0.00000

 k-point    98 :      -0.4500   -0.4500    0.2500
  band No.  band energies     occupation 
      1      -0.4125      2.00000
      2       0.3934      2.00000
      3       2.3647      2.00000
      4       3.4662      2.00000
      5       4.9587      2.00000
      6       9.8282     -0.00000
      7      11.9365     -0.00000
      8      17.2273      0.00000
      9      20.7376      0.00000
     10      25.3832      0.00000
     11      32.7159      0.00000
     12      35.3905      0.00000

 k-point    99 :      -0.3500   -0.4500    0.2500
  band No.  band energies     occupation 
      1      -0.2255      2.00000
      2       0.3548      2.00000
      3       2.1900      2.00000
      4       3.6393      2.00000
      5       5.0013      2.00000
      6      11.3102     -0.00000
      7      12.1031     -0.00000
      8      15.3272      0.00000
      9      19.0623      0.00000
     10      27.3505      0.00000
     11      32.6803      0.00000
     12      33.8651      0.00000

 k-point   100 :      -0.3500   -0.3500    0.2500
  band No.  band energies     occupation 
      1      -0.4380      2.00000
      2       0.2906      2.00000
      3       2.5905      2.00000
      4       3.7709      2.00000
      5       4.8080      2.00000
      6      11.1109     -0.00000
      7      11.7349     -0.00000
      8      15.4229      0.00000
      9      20.4285      0.00000
     10      25.6926      0.00000
     11      32.6828      0.00000
     12      35.5586      0.00000

 k-point   101 :       0.3500    0.3500    0.3500
  band No.  band energies     occupation 
      1      -1.4718      2.00000
      2       1.8068      2.00000
      3       1.8068      2.00000
      4       2.7217      2.00000
      5       4.3383      2.00000
      6       4.3383      2.00000
      7      14.8439      0.00000
      8      22.4059      0.00000
      9      26.9769      0.00000
     10      26.9769      0.00000
     11      32.1639      0.00000
     12      32.2785      0.00000

 k-point   102 :       0.4500    0.3500    0.3500
  band No.  band energies     occupation 
      1      -1.1007      2.00000
      2       1.5825      2.00000
      3       1.9323      2.00000
      4       2.6513      2.00000
      5       4.2022      2.00000
      6       5.7223      2.00000
      7      13.6810      0.00000
      8      22.1273      0.00000
      9      24.0461      0.00000
     10      26.9705      0.00000
     11      31.5246      0.00000
     12      33.3278      0.00000

 k-point   103 :      -0.4500    0.3500    0.3500
  band No.  band energies     occupation 
      1      -0.3187      2.00000
      2       1.1283      2.00000
      3       2.0437      2.00000
      4       2.4643      2.00000
      5       4.1740      2.00000
      6       7.6224     -0.00015
      7      13.0975      0.00000
      8      19.2861      0.00000
      9      23.9008      0.00000
     10      25.1968      0.00000
     11      31.8735      0.00000
     12      34.3943      0.00000

 k-point   104 :      -0.3500    0.3500    0.3500
  band No.  band energies     occupation 
      1      -0.0395      2.00000
      2       0.9067      2.00000
      3       1.7687      2.00000
      4       3.1954      2.00000
      5       4.3521      2.00000
      6       9.3706     -0.00000
      7      13.4279      0.00000
      8      15.6743      0.00000
      9      22.7081      0.00000
     10      24.8745      0.00000
     11      33.5667      0.00000
     12      34.9239      0.00000

 k-point   105 :       0.4500    0.4500    0.3500
  band No.  band energies     occupation 
      1      -1.1088      2.00000
      2       1.4740      2.00000
      3       1.9348      2.00000
      4       2.8995      2.00000
      5       4.9278      2.00000
      6       5.9631      2.00000
      7      12.3807     -0.00000
      8      22.1161      0.00000
      9      24.4867      0.00000
     10      25.0738      0.00000
     11      33.3092      0.00000
     12      33.7756      0.00000

 k-point   106 :      -0.4500    0.4500    0.3500
  band No.  band energies     occupation 
      1      -0.5911      2.00000
      2       1.1083      2.00000
      3       2.2578      2.00000
      4       2.4737      2.00000
      5       4.7453      2.00000
      6       7.9359     -0.00000
      7      11.5319     -0.00000
      8      21.2937      0.00000
      9      22.0497      0.00000
     10      25.3506      0.00000
     11      32.6637      0.00000
     12      34.9506      0.00000

 k-point   107 :      -0.3500    0.4500    0.3500
  band No.  band energies     occupation 
      1       0.0699      2.00000
      2       0.7005      2.00000
      3       1.7588      2.00000
      4       3.0108      2.00000
      5       4.6932      2.00000
      6       9.9926     -0.00000
      7      11.4606     -0.00000
      8      17.8661      0.00000
      9      20.8261      0.00000
     10      26.3983      0.00000
     11      32.4460      0.00000
     12      36.4793      0.00000

 k-point   108 :      -0.4500   -0.4500    0.3500
  band No.  band energies     occupation 
      1      -0.4703      2.00000
      2       1.0008      2.00000
      3       2.2861      2.00000
      4       2.5014      2.00000
      5       4.8632      2.00000
      6       9.1856     -0.00000
      7      10.5622     -0.00000
      8      20.0367      0.00000
      9      23.1379      0.00000
     10      23.9690      0.00000
     11      34.1325      0.00000
     12      34.3520      0.00000

 k-point   109 :       0.4500    0.4500    0.4500
  band No.  band energies     occupation 
      1      -1.3913      2.00000
      2       1.6381      2.00000
      3       1.6381      2.00000
      4       4.8626      2.00000
      5       4.8626      2.00000
      6       4.9229      2.00000
      7      11.3087     -0.00000
      8      21.6554      0.00000
      9      25.5976      0.00000
     10      25.5976      0.00000
     11      33.2241      0.00000
     12      33.2241      0.00000

 k-point   110 :      -0.4500    0.4500    0.4500
  band No.  band energies     occupation 
      1      -1.1044      2.00000
      2       1.4251      2.00000
      3       1.8427      2.00000
      4       3.5390      2.00000
      5       4.8358      2.00000
      6       7.1183      0.23404
      7      10.6613     -0.00000
      8      21.8025      0.00000
      9      23.9154      0.00000
     10      25.0326      0.00000
     11      33.4413      0.00000
     12      33.6899      0.00000


--------------------------------------------------------------------------------------------------------


 soft charge-density along one line, spin component           1
         0         1         2         3         4         5         6         7         8         9
 total charge-density along one line
 
 pseudopotential strength for first ion, spin component:           1
 -9.351   0.000   0.000   0.000   0.000   0.000   0.000   0.000  -0.000   0.000  -0.161   0.000  -0.000   0.000  -0.000   0.000
  0.000   0.000  -9.351   0.000  -0.000   0.000   0.000   0.000   0.000   0.000  -0.000   0.000  -0.161   0.000   0.000   0.000
  0.000   0.000  -0.000   0.000  -9.331   0.000  -0.000   0.000  -0.000   0.000  -0.000   0.000   0.000   0.000  -0.163   0.000
  0.000   0.000   0.000   0.000  -0.000   0.000  -9.351   0.000  -0.000   0.000  -0.000   0.000  -0.000   0.000   0.000   0.000
 -0.000   0.000   0.000   0.000  -0.000   0.000  -0.000   0.000  -9.331   0.000   0.000   0.000  -0.000   0.000   0.000   0.000
 -0.161   0.000  -0.000   0.000  -0.000   0.000  -0.000   0.000   0.000   0.000   0.293   0.000   0.000   0.000   0.000   0.000
 -0.000   0.000  -0.161   0.000   0.000   0.000  -0.000   0.000  -0.000   0.000   0.000   0.000   0.293   0.000  -0.000   0.000
 -0.000   0.000   0.000   0.000  -0.163   0.000   0.000   0.000   0.000   0.000   0.000   0.000  -0.000   0.000   0.293   0.000
 -0.000   0.000  -0.000   0.000   0.000   0.000  -0.161   0.000   0.000   0.000   0.000   0.000   0.000   0.000  -0.000   0.000
  0.000   0.000  -0.000   0.000   0.000   0.000   0.000   0.000  -0.163   0.000  -0.000   0.000   0.000   0.000  -0.000   0.000
  0.000   0.000   0.000   0.000   0.000   0.000   0.000   0.000  -0.000   0.000   0.000   0.000   0.000   0.000  -0.000   0.000
 -0.000   0.000  -0.000   0.000  -0.000   0.000  -0.000   0.000   0.000   0.000   0.000   0.000   0.000   0.000   0.000   0.000
 -0.000   0.000  -0.000   0.000   0.000   0.000  -0.000   0.000   0.000   0.000   0.000   0.000   0.000   0.000  -0.000   0.000
 -0.000   0.000  -0.000   0.000  -0.000   0.000  -0.000   0.000   0.000   0.000   0.000   0.000   0.000   0.000   0.000   0.000
 -0.000   0.000  -0.000   0.000  -0.000   0.000  -0.000   0.000  -0.000   0.000   0.000   0.000   0.000   0.000  -0.000   0.000
  0.000   0.000   0.000   0.000  -0.000   0.000   0.000   0.000  -0.000   0.000  -0.000   0.000  -0.000   0.000   0.000   0.000
  0.000   0.000   0.000   0.000   0.000   0.000   0.000   0.000  -0.000   0.000  -0.000   0.000  -0.000   0.000  -0.000   0.000
  0.000   0.000   0.000   0.000   0.000   0.000   0.000   0.000   0.000   0.000  -0.000   0.000  -0.000   0.000  -0.000   0.000
 total augmentation occupancy for first ion, spin component:           1
  1.906  -0.000   0.000  -0.000  -0.000  -0.000   0.000   0.000   0.000  -0.000  -0.000   0.000   0.000   0.000   0.000   0.000
 -0.000   1.906   0.000  -0.000  -0.000   0.000  -0.000   0.000   0.000  -0.000   0.000  -0.000   0.000   0.000   0.000   0.000
  0.000   0.000   1.955  -0.000   0.000   0.000   0.000  -0.055  -0.000   0.000   0.000  -0.000   0.000   0.000   0.000   0.000
 -0.000  -0.000  -0.000   1.906   0.000   0.000   0.000  -0.000  -0.000  -0.000  -0.000  -0.000   0.000   0.000   0.000   0.000
 -0.000   0.000   0.000  -0.000   1.955   0.000  -0.000   0.000  -0.000  -0.055   0.000  -0.000   0.000   0.000   0.000   0.000
 -0.000   0.000   0.000   0.000   0.000   0.293  -0.000  -0.000  -0.000   0.000  -0.000   0.000   0.000   0.000   0.000   0.000
  0.000  -0.000   0.000   0.000  -0.000  -0.000   0.293  -0.000   0.000   0.000   0.000   0.000   0.000   0.000   0.000   0.000
  0.000  -0.000  -0.055  -0.000  -0.000  -0.000  -0.000   0.232   0.000   0.000   0.000  -0.000   0.000   0.000   0.000   0.000
  0.000   0.000  -0.000  -0.000  -0.000  -0.000   0.000   0.000   0.293   0.000   0.000   0.000   0.000   0.000   0.000   0.000
  0.000  -0.000   0.000   0.000  -0.055   0.000   0.000   0.000  -0.000   0.232   0.000   0.000   0.000   0.000   0.000   0.000
 -0.000   0.000   0.000  -0.000   0.000  -0.000   0.000   0.000   0.000   0.000   1.138  -0.464   0.000   0.000   0.000   0.000
  0.000  -0.000  -0.000  -0.000   0.000   0.000  -0.000  -0.000   0.000   0.000  -0.464   0.338   0.000   0.000   0.000   0.000
  0.000   0.000   0.000   0.000   0.000   0.000   0.000   0.000   0.000   0.000   0.000   0.000   0.207  -0.000   0.000  -0.016
  0.000   0.000   0.000   0.000   0.000   0.000   0.000   0.000   0.000   0.000   0.000   0.000  -0.000   0.207  -0.000   0.000
  0.000   0.000   0.000   0.000   0.000   0.000   0.000   0.000   0.000   0.000   0.000   0.000   0.000  -0.000   0.207  -0.000
  0.000   0.000   0.000   0.000   0.000   0.000   0.000   0.000   0.000   0.000   0.000   0.000  -0.016   0.000  -0.000   0.001
  0.000   0.000   0.000   0.000   0.000   0.000   0.000   0.000   0.000   0.000   0.000   0.000   0.000  -0.016   0.000  -0.000
  0.000   0.000   0.000   0.000   0.000   0.000   0.000   0.000   0.000   0.000   0.000   0.000  -0.000   0.000  -0.016   0.000


------------------------ aborting loop because EDIFF is reached ----------------------------------------


    CHARGE:  cpu time    0.0028: real time    0.0098
    FORLOC:  cpu time    0.0001: real time    0.0002
    FORNL :  cpu time    0.0074: real time    0.0196
    STRESS:  cpu time    0.0466: real time    0.1341
    FORCOR:  cpu time    0.0009: real time    0.0100
    FORHAR:  cpu time    0.0005: real time    0.0005
    MIXING:  cpu time    0.0003: real time    0.0002
    OFIELD:  cpu time    0.0000: real time    0.0000

  FORCE on cell =-STRESS in cart. coord.  units (eV):
  Direction    XX          YY          ZZ          XY          YZ          ZX
  --------------------------------------------------------------------------------------
  Alpha Z   119.28496   119.28496   119.28496
  Ewald    -337.06945  -337.06945  -337.06945    -0.00000     0.00000     0.00000
  Hartree    33.08399    33.08399    33.08399     0.00002     0.00002     0.00002
  E(xc)     -49.53943   -49.53943   -49.53943    -0.00002    -0.00002    -0.00002
  Local      85.63519    85.63519    85.63519    -0.00048    -0.00048    -0.00048
  n-local   -47.16820   -44.05491   -47.93067     0.61214    -0.64498     0.01620
  augment    42.25524    42.25524    42.25524    -0.00046    -0.00046    -0.00046
  Kinetic   154.33349   153.28333   155.44339    -0.29589     0.11693     0.02365
  Fock        0.00000     0.00000     0.00000     0.00000     0.00000     0.00000
  -------------------------------------------------------------------------------------
  Total       1.61931     1.61931     1.61931     0.00000     0.00000    -0.00000
  in kB     168.38769   168.38769   168.38769     0.00000     0.00000    -0.00000
  external pressure =      168.39 kB  Pullay stress =        0.00 kB


 VOLUME and BASIS-vectors are now :
 -----------------------------------------------------------------------------
  energy-cutoff  :      230.00
  volume of cell :       15.41
      direct lattice vectors                 reciprocal lattice vectors
     0.000000000  1.975000000  1.975000000    -0.253164557  0.253164557  0.253164557
     1.975000000  0.000000000  1.975000000     0.253164557 -0.253164557  0.253164557
     1.975000000  1.975000000  0.000000000     0.253164557  0.253164557 -0.253164557

  length of vectors
     2.793071786  2.793071786  2.793071786     0.438493875  0.438493875  0.438493875


 FORCES acting on ions
    electron-ion (+dipol)            ewald-force                    non-local-force                 convergence-correction
 -----------------------------------------------------------------------------------------------
   0.636E-14 0.124E-13 0.772E-14   0.100E-14 0.267E-15 -.733E-15   0.000E+00 0.000E+00 0.165E-23   0.464E-14 0.151E-13 0.129E-13
 -----------------------------------------------------------------------------------------------
   0.636E-14 0.124E-13 0.772E-14   0.100E-14 0.267E-15 -.733E-15   0.000E+00 0.000E+00 0.165E-23   0.464E-14 0.151E-13 0.129E-13
 
 
 POSITION                                       TOTAL-FORCE (eV/Angst)
 -----------------------------------------------------------------------------------
      0.00000      0.00000      0.00000         0.000000      0.000000      0.000000
 -----------------------------------------------------------------------------------
    total drift:                                0.000000      0.000000      0.000000


--------------------------------------------------------------------------------------------------------



  FREE ENERGIE OF THE ION-ELECTRON SYSTEM (eV)
  ---------------------------------------------------
  free  energy   TOTEN  =        -4.31732569 eV

  energy  without entropy=       -4.31748071  energy(sigma->0) =       -4.31737736
 


--------------------------------------------------------------------------------------------------------


    POTLOK:  cpu time    0.0020: real time    0.0086


--------------------------------------------------------------------------------------------------------


 writing wavefunctions
     LOOP+:  cpu time    1.4872: real time    4.1055
    4ORBIT:  cpu time    0.0000: real time    0.0000

 total amount of memory used by VASP MPI-rank0    33243. kBytes
=======================================================================

   base      :      30000. kBytes
   nonl-proj :       2092. kBytes
   fftplans  :        142. kBytes
   grid      :        192. kBytes
   one-center:         15. kBytes
   wavefun   :        802. kBytes
 
  
  
 General timing and accounting informations for this job:
 ========================================================
  
                  Total CPU time used (sec):        1.897
                            User time (sec):        1.676
                          System time (sec):        0.221
                         Elapsed time (sec):        5.213
  
                   Maximum memory used (kb):       56876.
                   Average memory used (kb):           0.
  
                          Minor page faults:        14753
                          Major page faults:            0
                 Voluntary context switches:         2031
