<?xml version="1.0" encoding="ISO-8859-1"?>
<modeling>
 <generator>
  <i name="program" type="string">vasp </i>
  <i name="version" type="string">5.4.4.18Apr17-6-g9f103f2a35  </i>
  <i name="subversion" type="string">(build Jul 01 2019 03:25:34) complex            parallel </i>
  <i name="platform" type="string">LinuxIFC </i>
  <i name="date" type="string">2020 07 08 </i>
  <i name="time" type="string">00:55:26 </i>
 </generator>
 <incar>
  <i type="string" name="SYSTEM"> FCC Au</i>
  <i type="string" name="PREC">normal</i>
  <i name="EDIFF">      0.00010000</i>
  <i name="ENCUT">    230.00000000</i>
  <v type="int" name="KPOINT_BSE">    -1     0     0     0</v>
 </incar>
 <structure name="primitive_cell" >
  <crystal>
   <varray name="basis" >
    <v>       0.00000000       1.97500000       1.97500000 </v>
    <v>       1.97500000       0.00000000       1.97500000 </v>
    <v>       1.97500000       1.97500000       0.00000000 </v>
   </varray>
   <i name="volume">     15.40746875 </i>
   <varray name="rec_basis" >
    <v>      -0.25316456       0.25316456       0.25316456 </v>
    <v>       0.25316456      -0.25316456       0.25316456 </v>
    <v>       0.25316456       0.25316456      -0.25316456 </v>
   </varray>
  </crystal>
  <varray name="positions" >
   <v>       0.00000000       0.00000000       0.00000000 </v>
  </varray>
 </structure>
 <varray name="primitive_index" >
  <v type="int" >        1 </v>
 </varray>
 <kpoints>
  <generation param="Monkhorst-Pack">
   <v type="int" name="divisions">      10       10       10 </v>
   <v name="usershift">      0.00000000       0.00000000       0.00000000 </v>
   <v name="genvec1">      0.10000000       0.00000000       0.00000000 </v>
   <v name="genvec2">      0.00000000       0.10000000       0.00000000 </v>
   <v name="genvec3">      0.00000000       0.00000000       0.10000000 </v>
   <v name="shift">      0.50000000       0.50000000       0.50000000 </v>
  </generation>
  <varray name="kpointlist" >
   <v>       0.05000000       0.05000000       0.05000000 </v>
   <v>       0.15000000       0.05000000       0.05000000 </v>
   <v>       0.25000000       0.05000000       0.05000000 </v>
   <v>       0.35000000       0.05000000       0.05000000 </v>
   <v>       0.45000000       0.05000000       0.05000000 </v>
   <v>      -0.45000000       0.05000000       0.05000000 </v>
   <v>      -0.35000000       0.05000000       0.05000000 </v>
   <v>      -0.25000000       0.05000000       0.05000000 </v>
   <v>      -0.15000000       0.05000000       0.05000000 </v>
   <v>      -0.05000000       0.05000000       0.05000000 </v>
   <v>       0.15000000       0.15000000       0.05000000 </v>
   <v>       0.25000000       0.15000000       0.05000000 </v>
   <v>       0.35000000       0.15000000       0.05000000 </v>
   <v>       0.45000000       0.15000000       0.05000000 </v>
   <v>      -0.45000000       0.15000000       0.05000000 </v>
   <v>      -0.35000000       0.15000000       0.05000000 </v>
   <v>      -0.25000000       0.15000000       0.05000000 </v>
   <v>      -0.15000000       0.15000000       0.05000000 </v>
   <v>      -0.05000000       0.15000000       0.05000000 </v>
   <v>       0.25000000       0.25000000       0.05000000 </v>
   <v>       0.35000000       0.25000000       0.05000000 </v>
   <v>       0.45000000       0.25000000       0.05000000 </v>
   <v>      -0.45000000       0.25000000       0.05000000 </v>
   <v>      -0.35000000       0.25000000       0.05000000 </v>
   <v>      -0.25000000       0.25000000       0.05000000 </v>
   <v>      -0.15000000       0.25000000       0.05000000 </v>
   <v>      -0.05000000       0.25000000       0.05000000 </v>
   <v>       0.35000000       0.35000000       0.05000000 </v>
   <v>       0.45000000       0.35000000       0.05000000 </v>
   <v>      -0.45000000       0.35000000       0.05000000 </v>
   <v>      -0.35000000       0.35000000       0.05000000 </v>
   <v>      -0.25000000       0.35000000       0.05000000 </v>
   <v>      -0.15000000       0.35000000       0.05000000 </v>
   <v>      -0.05000000       0.35000000       0.05000000 </v>
   <v>       0.45000000       0.45000000       0.05000000 </v>
   <v>      -0.45000000       0.45000000       0.05000000 </v>
   <v>      -0.35000000       0.45000000       0.05000000 </v>
   <v>      -0.25000000       0.45000000       0.05000000 </v>
   <v>      -0.15000000       0.45000000       0.05000000 </v>
   <v>      -0.05000000       0.45000000       0.05000000 </v>
   <v>      -0.45000000      -0.45000000       0.05000000 </v>
   <v>      -0.35000000      -0.45000000       0.05000000 </v>
   <v>      -0.25000000      -0.45000000       0.05000000 </v>
   <v>      -0.15000000      -0.45000000       0.05000000 </v>
   <v>      -0.35000000      -0.35000000       0.05000000 </v>
   <v>      -0.25000000      -0.35000000       0.05000000 </v>
   <v>      -0.15000000      -0.35000000       0.05000000 </v>
   <v>      -0.25000000      -0.25000000       0.05000000 </v>
   <v>      -0.15000000      -0.25000000       0.05000000 </v>
   <v>      -0.15000000      -0.15000000       0.05000000 </v>
   <v>       0.15000000       0.15000000       0.15000000 </v>
   <v>       0.25000000       0.15000000       0.15000000 </v>
   <v>       0.35000000       0.15000000       0.15000000 </v>
   <v>       0.45000000       0.15000000       0.15000000 </v>
   <v>      -0.45000000       0.15000000       0.15000000 </v>
   <v>      -0.35000000       0.15000000       0.15000000 </v>
   <v>      -0.25000000       0.15000000       0.15000000 </v>
   <v>      -0.15000000       0.15000000       0.15000000 </v>
   <v>       0.25000000       0.25000000       0.15000000 </v>
   <v>       0.35000000       0.25000000       0.15000000 </v>
   <v>       0.45000000       0.25000000       0.15000000 </v>
   <v>      -0.45000000       0.25000000       0.15000000 </v>
   <v>      -0.35000000       0.25000000       0.15000000 </v>
   <v>      -0.25000000       0.25000000       0.15000000 </v>
   <v>      -0.15000000       0.25000000       0.15000000 </v>
   <v>       0.35000000       0.35000000       0.15000000 </v>
   <v>       0.45000000       0.35000000       0.15000000 </v>
   <v>      -0.45000000       0.35000000       0.15000000 </v>
   <v>      -0.35000000       0.35000000       0.15000000 </v>
   <v>      -0.25000000       0.35000000       0.15000000 </v>
   <v>      -0.15000000       0.35000000       0.15000000 </v>
   <v>       0.45000000       0.45000000       0.15000000 </v>
   <v>      -0.45000000       0.45000000       0.15000000 </v>
   <v>      -0.35000000       0.45000000       0.15000000 </v>
   <v>      -0.25000000       0.45000000       0.15000000 </v>
   <v>      -0.15000000       0.45000000       0.15000000 </v>
   <v>      -0.45000000      -0.45000000       0.15000000 </v>
   <v>      -0.35000000      -0.45000000       0.15000000 </v>
   <v>      -0.25000000      -0.45000000       0.15000000 </v>
   <v>      -0.35000000      -0.35000000       0.15000000 </v>
   <v>      -0.25000000      -0.35000000       0.15000000 </v>
   <v>      -0.25000000      -0.25000000       0.15000000 </v>
   <v>       0.25000000       0.25000000       0.25000000 </v>
   <v>       0.35000000       0.25000000       0.25000000 </v>
   <v>       0.45000000       0.25000000       0.25000000 </v>
   <v>      -0.45000000       0.25000000       0.25000000 </v>
   <v>      -0.35000000       0.25000000       0.25000000 </v>
   <v>      -0.25000000       0.25000000       0.25000000 </v>
   <v>       0.35000000       0.35000000       0.25000000 </v>
   <v>       0.45000000       0.35000000       0.25000000 </v>
   <v>      -0.45000000       0.35000000       0.25000000 </v>
   <v>      -0.35000000       0.35000000       0.25000000 </v>
   <v>      -0.25000000       0.35000000       0.25000000 </v>
   <v>       0.45000000       0.45000000       0.25000000 </v>
   <v>      -0.45000000       0.45000000       0.25000000 </v>
   <v>      -0.35000000       0.45000000       0.25000000 </v>
   <v>      -0.25000000       0.45000000       0.25000000 </v>
   <v>      -0.45000000      -0.45000000       0.25000000 </v>
   <v>      -0.35000000      -0.45000000       0.25000000 </v>
   <v>      -0.35000000      -0.35000000       0.25000000 </v>
   <v>       0.35000000       0.35000000       0.35000000 </v>
   <v>       0.45000000       0.35000000       0.35000000 </v>
   <v>      -0.45000000       0.35000000       0.35000000 </v>
   <v>      -0.35000000       0.35000000       0.35000000 </v>
   <v>       0.45000000       0.45000000       0.35000000 </v>
   <v>      -0.45000000       0.45000000       0.35000000 </v>
   <v>      -0.35000000       0.45000000       0.35000000 </v>
   <v>      -0.45000000      -0.45000000       0.35000000 </v>
   <v>       0.45000000       0.45000000       0.45000000 </v>
   <v>      -0.45000000       0.45000000       0.45000000 </v>
  </varray>
  <varray name="weights" >
   <v>       0.00200000 </v>
   <v>       0.00600000 </v>
   <v>       0.00600000 </v>
   <v>       0.00600000 </v>
   <v>       0.00600000 </v>
   <v>       0.00600000 </v>
   <v>       0.00600000 </v>
   <v>       0.00600000 </v>
   <v>       0.00600000 </v>
   <v>       0.00600000 </v>
   <v>       0.00600000 </v>
   <v>       0.01200000 </v>
   <v>       0.01200000 </v>
   <v>       0.01200000 </v>
   <v>       0.01200000 </v>
   <v>       0.01200000 </v>
   <v>       0.01200000 </v>
   <v>       0.01200000 </v>
   <v>       0.01200000 </v>
   <v>       0.00600000 </v>
   <v>       0.01200000 </v>
   <v>       0.01200000 </v>
   <v>       0.01200000 </v>
   <v>       0.01200000 </v>
   <v>       0.01200000 </v>
   <v>       0.01200000 </v>
   <v>       0.01200000 </v>
   <v>       0.00600000 </v>
   <v>       0.01200000 </v>
   <v>       0.01200000 </v>
   <v>       0.01200000 </v>
   <v>       0.01200000 </v>
   <v>       0.01200000 </v>
   <v>       0.01200000 </v>
   <v>       0.00600000 </v>
   <v>       0.01200000 </v>
   <v>       0.01200000 </v>
   <v>       0.01200000 </v>
   <v>       0.01200000 </v>
   <v>       0.01200000 </v>
   <v>       0.00600000 </v>
   <v>       0.01200000 </v>
   <v>       0.01200000 </v>
   <v>       0.01200000 </v>
   <v>       0.00600000 </v>
   <v>       0.01200000 </v>
   <v>       0.01200000 </v>
   <v>       0.00600000 </v>
   <v>       0.01200000 </v>
   <v>       0.00600000 </v>
   <v>       0.00200000 </v>
   <v>       0.00600000 </v>
   <v>       0.00600000 </v>
   <v>       0.00600000 </v>
   <v>       0.00600000 </v>
   <v>       0.00600000 </v>
   <v>       0.00600000 </v>
   <v>       0.00600000 </v>
   <v>       0.00600000 </v>
   <v>       0.01200000 </v>
   <v>       0.01200000 </v>
   <v>       0.01200000 </v>
   <v>       0.01200000 </v>
   <v>       0.01200000 </v>
   <v>       0.01200000 </v>
   <v>       0.00600000 </v>
   <v>       0.01200000 </v>
   <v>       0.01200000 </v>
   <v>       0.01200000 </v>
   <v>       0.01200000 </v>
   <v>       0.01200000 </v>
   <v>       0.00600000 </v>
   <v>       0.01200000 </v>
   <v>       0.01200000 </v>
   <v>       0.01200000 </v>
   <v>       0.01200000 </v>
   <v>       0.00600000 </v>
   <v>       0.01200000 </v>
   <v>       0.01200000 </v>
   <v>       0.00600000 </v>
   <v>       0.01200000 </v>
   <v>       0.00600000 </v>
   <v>       0.00200000 </v>
   <v>       0.00600000 </v>
   <v>       0.00600000 </v>
   <v>       0.00600000 </v>
   <v>       0.00600000 </v>
   <v>       0.00600000 </v>
   <v>       0.00600000 </v>
   <v>       0.01200000 </v>
   <v>       0.01200000 </v>
   <v>       0.01200000 </v>
   <v>       0.01200000 </v>
   <v>       0.00600000 </v>
   <v>       0.01200000 </v>
   <v>       0.01200000 </v>
   <v>       0.01200000 </v>
   <v>       0.00600000 </v>
   <v>       0.01200000 </v>
   <v>       0.00600000 </v>
   <v>       0.00200000 </v>
   <v>       0.00600000 </v>
   <v>       0.00600000 </v>
   <v>       0.00600000 </v>
   <v>       0.00600000 </v>
   <v>       0.01200000 </v>
   <v>       0.01200000 </v>
   <v>       0.00600000 </v>
   <v>       0.00200000 </v>
   <v>       0.00600000 </v>
  </varray>
 </kpoints>
 <parameters>
  <separator name="general" >
   <i type="string" name="SYSTEM">FCC Au</i>
   <i type="logical" name="LCOMPAT"> F  </i>
  </separator>
  <separator name="electronic" >
   <i type="string" name="PREC">normal</i>
   <i name="ENMAX">    230.00000000</i>
   <i name="ENAUG">    356.67000000</i>
   <i name="EDIFF">      0.00010000</i>
   <i type="int" name="IALGO">    38</i>
   <i type="int" name="IWAVPR">    10</i>
   <i type="int" name="NBANDS">    12</i>
   <i name="NELECT">     11.00000000</i>
   <i type="int" name="TURBO">     0</i>
   <i type="int" name="IRESTART">     0</i>
   <i type="int" name="NREBOOT">     0</i>
   <i type="int" name="NMIN">     0</i>
   <i name="EREF">      0.00000000</i>
   <separator name="electronic smearing" >
    <i type="int" name="ISMEAR">     1</i>
    <i name="SIGMA">      0.20000000</i>
    <i name="KSPACING">      0.50000000</i>
    <i type="logical" name="KGAMMA"> T  </i>
   </separator>
   <separator name="electronic projectors" >
    <i type="logical" name="LREAL"> F  </i>
    <v name="ROPT">      0.00000000</v>
    <i type="int" name="LMAXPAW">  -100</i>
    <i type="int" name="LMAXMIX">     2</i>
    <i type="logical" name="NLSPLINE"> F  </i>
   </separator>
   <separator name="electronic startup" >
    <i type="int" name="ISTART">     1</i>
    <i type="int" name="ICHARG">     0</i>
    <i type="int" name="INIWAV">     1</i>
   </separator>
   <separator name="electronic spin" >
    <i type="int" name="ISPIN">     1</i>
    <i type="logical" name="LNONCOLLINEAR"> F  </i>
    <v name="MAGMOM">      1.00000000</v>
    <i name="NUPDOWN">     -1.00000000</i>
    <i type="logical" name="LSORBIT"> F  </i>
    <v name="SAXIS">      0.00000000      0.00000000      1.00000000</v>
    <i type="logical" name="LSPIRAL"> F  </i>
    <v name="QSPIRAL">      0.00000000      0.00000000      0.00000000</v>
    <i type="logical" name="LZEROZ"> F  </i>
   </separator>
   <separator name="electronic exchange-correlation" >
    <i type="logical" name="LASPH"> F  </i>
    <i type="logical" name="LMETAGGA"> F  </i>
   </separator>
   <separator name="electronic convergence" >
    <i type="int" name="NELM">    60</i>
    <i type="int" name="NELMDL">     0</i>
    <i type="int" name="NELMIN">     2</i>
    <i name="ENINI">    230.00000000</i>
    <separator name="electronic convergence detail" >
     <i type="logical" name="LDIAG"> T  </i>
     <i type="logical" name="LSUBROT"> F  </i>
     <i name="WEIMIN">      0.00000000</i>
     <i name="EBREAK">      0.00000208</i>
     <i name="DEPER">      0.30000000</i>
     <i type="int" name="NRMM">     4</i>
     <i name="TIME">      0.40000000</i>
    </separator>
   </separator>
   <separator name="electronic mixer" >
    <i name="AMIX">      0.40000000</i>
    <i name="BMIX">      1.00000000</i>
    <i name="AMIN">      0.10000000</i>
    <i name="AMIX_MAG">      1.60000000</i>
    <i name="BMIX_MAG">      1.00000000</i>
    <separator name="electronic mixer details" >
     <i type="int" name="IMIX">     4</i>
     <i type="logical" name="MIXFIRST"> F  </i>
     <i type="int" name="MAXMIX">   -45</i>
     <i name="WC">    100.00000000</i>
     <i type="int" name="INIMIX">     1</i>
     <i type="int" name="MIXPRE">     1</i>
     <i type="int" name="MREMOVE">     5</i>
    </separator>
   </separator>
   <separator name="electronic dipolcorrection" >
    <i type="logical" name="LDIPOL"> F  </i>
    <i type="logical" name="LMONO"> F  </i>
    <i type="int" name="IDIPOL">     0</i>
    <i name="EPSILON">      1.00000000</i>
    <v name="DIPOL">   -100.00000000   -100.00000000   -100.00000000</v>
    <i name="EFIELD">      0.00000000</i>
   </separator>
  </separator>
  <separator name="grids" >
   <i type="int" name="NGX">    10</i>
   <i type="int" name="NGY">    10</i>
   <i type="int" name="NGZ">    10</i>
   <i type="int" name="NGXF">    20</i>
   <i type="int" name="NGYF">    20</i>
   <i type="int" name="NGZF">    20</i>
   <i type="logical" name="ADDGRID"> F  </i>
  </separator>
  <separator name="ionic" >
   <i type="int" name="NSW">     0</i>
   <i type="int" name="IBRION">    -1</i>
   <i type="int" name="MDALGO">     0</i>
   <i type="int" name="ISIF">     2</i>
   <i name="PSTRESS">      0.00000000</i>
   <i name="EDIFFG">      0.00100000</i>
   <i type="int" name="NFREE">     0</i>
   <i name="POTIM">      0.50000000</i>
   <i name="SMASS">     -3.00000000</i>
   <i name="SCALEE">      1.00000000</i>
  </separator>
  <separator name="ionic md" >
   <i name="TEBEG">      0.00010000</i>
   <i name="TEEND">      0.00010000</i>
   <i type="int" name="NBLOCK">     1</i>
   <i type="int" name="KBLOCK">     1</i>
   <i type="int" name="NPACO">   256</i>
   <i name="APACO">     16.00000000</i>
  </separator>
  <separator name="symmetry" >
   <i type="int" name="ISYM">     2</i>
   <i name="SYMPREC">      0.00001000</i>
  </separator>
  <separator name="dos" >
   <i type="int" name="LORBIT">     0</i>
   <v name="RWIGS">     -1.00000000</v>
   <i type="int" name="NEDOS">   301</i>
   <i name="EMIN">     10.00000000</i>
   <i name="EMAX">    -10.00000000</i>
   <i name="EFERMI">      0.00000000</i>
  </separator>
  <separator name="writing" >
   <i type="int" name="NWRITE">     2</i>
   <i type="logical" name="LWAVE"> T  </i>
   <i type="logical" name="LDOWNSAMPLE"> F  </i>
   <i type="logical" name="LCHARG"> T  </i>
   <i type="logical" name="LPARD"> F  </i>
   <i type="logical" name="LVTOT"> F  </i>
   <i type="logical" name="LVHAR"> F  </i>
   <i type="logical" name="LELF"> F  </i>
   <i type="logical" name="LOPTICS"> F  </i>
   <v name="STM">      0.00000000      0.00000000      0.00000000      0.00000000      0.00000000      0.00000000      0.00000000</v>
  </separator>
  <separator name="performance" >
   <i type="int" name="NPAR">     4</i>
   <i type="int" name="NSIM">     4</i>
   <i type="int" name="NBLK">    -1</i>
   <i type="logical" name="LPLANE"> T  </i>
   <i type="logical" name="LSCALAPACK"> T  </i>
   <i type="logical" name="LSCAAWARE"> F  </i>
   <i type="logical" name="LSCALU"> F  </i>
   <i type="logical" name="LASYNC"> F  </i>
   <i type="logical" name="LORBITALREAL"> F  </i>
  </separator>
  <separator name="miscellaneous" >
   <i type="int" name="IDIOT">     3</i>
   <i type="int" name="ISPECIAL">     0</i>
   <i type="logical" name="LMUSIC"> F  </i>
   <v name="POMASS">    196.96600000</v>
   <v name="DARWINR">      0.00000000</v>
   <v name="DARWINV">      1.00000000</v>
   <i type="logical" name="LCORR"> T  </i>
  </separator>
  <i type="logical" name="GGA_COMPAT"> T  </i>
  <i type="logical" name="LBERRY"> F  </i>
  <i type="int" name="ICORELEVEL">     0</i>
  <i type="logical" name="LDAU"> F  </i>
  <i type="int" name="I_CONSTRAINED_M">     0</i>
  <separator name="electronic exchange-correlation" >
   <i type="string" name="GGA">--</i>
   <i type="int" name="VOSKOWN">     0</i>
   <i type="logical" name="LHFCALC"> F  </i>
   <i type="string" name="PRECFOCK"></i>
   <i type="logical" name="LSYMGRAD"> F  </i>
   <i type="logical" name="LHFONE"> F  </i>
   <i type="logical" name="LRHFCALC"> F  </i>
   <i type="logical" name="LTHOMAS"> F  </i>
   <i type="logical" name="LMODELHF"> F  </i>
   <i name="ENCUT4O">     -1.00000000</i>
   <i type="int" name="EXXOEP">     0</i>
   <i type="int" name="FOURORBIT">     0</i>
   <i name="AEXX">      0.00000000</i>
   <i name="HFALPHA">      0.00000000</i>
   <i name="MCALPHA">      0.00000000</i>
   <i name="ALDAX">      1.00000000</i>
   <i name="AGGAX">      1.00000000</i>
   <i name="ALDAC">      1.00000000</i>
   <i name="AGGAC">      1.00000000</i>
   <i type="int" name="NKREDX">     1</i>
   <i type="int" name="NKREDY">     1</i>
   <i type="int" name="NKREDZ">     1</i>
   <i type="logical" name="SHIFTRED"> F  </i>
   <i type="logical" name="ODDONLY"> F  </i>
   <i type="logical" name="EVENONLY"> F  </i>
   <i type="int" name="LMAXFOCK">     0</i>
   <i type="int" name="NMAXFOCKAE">     0</i>
   <i type="logical" name="LFOCKAEDFT"> F  </i>
   <i name="HFSCREEN">      0.00000000</i>
   <i name="HFSCREENC">      0.00000000</i>
   <i type="int" name="NBANDSGWLOW">     0</i>
  </separator>
  <separator name="vdW DFT" >
   <i type="logical" name="LUSE_VDW"> F  </i>
   <i name="Zab_VDW">     -0.84910000</i>
   <i name="PARAM1">      0.12340000</i>
   <i name="PARAM2">      1.00000000</i>
   <i name="PARAM3">      0.00000000</i>
  </separator>
  <separator name="model GW" >
   <i type="int" name="MODEL_GW">     0</i>
   <i name="MODEL_EPS0">      9.24448125</i>
   <i name="MODEL_ALPHA">      1.00000000</i>
  </separator>
  <separator name="linear response parameters" >
   <i type="logical" name="LEPSILON"> F  </i>
   <i type="logical" name="LRPA"> F  </i>
   <i type="logical" name="LNABLA"> F  </i>
   <i type="logical" name="LVEL"> F  </i>
   <i type="int" name="KINTER">     0</i>
   <i name="CSHIFT">      0.10000000</i>
   <i name="OMEGAMAX">     -1.00000000</i>
   <i name="DEG_THRESHOLD">      0.00200000</i>
   <i name="RTIME">     -0.10000000</i>
   <i name="WPLASMAI">      0.00000000</i>
   <v name="DFIELD">      0.00000000      0.00000000      0.00000000</v>
   <v name="WPLASMA">      0.00000000      0.00000000      0.00000000      0.00000000      0.00000000      0.00000000      0.00000000      0.00000000      0.00000000</v>
  </separator>
  <separator name="orbital magnetization" >
   <i type="logical" name="NUCIND"> F  </i>
   <v name="MAGPOS">      0.00000000      0.00000000      0.00000000</v>
   <i type="logical" name="LNICSALL"> T  </i>
   <i type="logical" name="ORBITALMAG"> F  </i>
   <i type="logical" name="LMAGBLOCH"> F  </i>
   <i type="logical" name="LCHIMAG"> F  </i>
   <i type="logical" name="LGAUGE"> T  </i>
   <i type="int" name="MAGATOM">     0</i>
   <v name="MAGDIPOL">      0.00000000      0.00000000      0.00000000</v>
   <v name="AVECCONST">      0.00000000      0.00000000      0.00000000</v>
  </separator>
  <separator name="response functions" >
   <i type="logical" name="LADDER"> F  </i>
   <i type="logical" name="LRPAFORCE"> F  </i>
   <i type="logical" name="LFXC"> F  </i>
   <i type="logical" name="LHARTREE"> T  </i>
   <i type="int" name="IBSE">     0</i>
   <v type="int" name="KPOINT">    -1     0     0     0</v>
   <i type="logical" name="LTCTE"> F  </i>
   <i type="logical" name="LTETE"> F  </i>
   <i type="logical" name="LTRIPLET"> F  </i>
   <i type="logical" name="LFXCEPS"> F  </i>
   <i type="logical" name="LFXHEG"> F  </i>
   <i type="int" name="NATURALO">     2</i>
   <i type="logical" name="L2ORDER"> F  </i>
   <i type="logical" name="LMP2LT"> F  </i>
   <i type="logical" name="LUSEW"> F  </i>
   <i name="ENCUTGW">     -2.00000000</i>
   <i name="ENCUTGWSOFT">     -2.00000000</i>
   <i name="ENCUTLF">     -1.00000000</i>
   <i type="int" name="LMAXMP2">    -1</i>
   <i name="SCISSOR">      0.00000000</i>
   <i type="int" name="NOMEGA">     0</i>
   <i type="int" name="NOMEGAR">     0</i>
   <i type="int" name="NBANDSGW">    -1</i>
   <i type="int" name="NBANDSO">    -1</i>
   <i type="int" name="NBANDSV">    -1</i>
   <i type="int" name="NELM">     1</i>
   <i type="int" name="NELMHF">     1</i>
   <i type="int" name="DIM">     3</i>
   <i type="int" name="ANTIRES">     0</i>
   <i name="OMEGAMAX">    -30.00000000</i>
   <i name="OMEGAMIN">    -30.00000000</i>
   <i name="OMEGATL">   -200.00000000</i>
   <i type="int" name="OMEGAGRID">   140</i>
   <i name="CSHIFT">     -0.10000000</i>
   <i type="logical" name="SELFENERGY"> F  </i>
   <i type="logical" name="LSPECTRAL"> F  </i>
   <i type="logical" name="LSPECTRALGW"> F  </i>
   <i type="logical" name="LSINGLES"> F  </i>
   <i type="logical" name="LFERMIGW"> F  </i>
   <i type="logical" name="ODDONLYGW"> F  </i>
   <i type="logical" name="EVENONLYGW"> F  </i>
   <i type="int" name="NKREDLFX">     1</i>
   <i type="int" name="NKREDLFY">     1</i>
   <i type="int" name="NKREDLFZ">     1</i>
   <i type="int" name="MAXMEM">  2800</i>
   <i type="int" name="TELESCOPE">     0</i>
   <i type="int" name="TAUPAR">     1</i>
   <i type="int" name="OMEGAPAR">    -1</i>
   <i name="LAMBDA">      1.00000000</i>
  </separator>
  <separator name="External order field" >
   <i name="OFIELD_KAPPA">      0.00000000</i>
   <v name="OFIELD_K">      0.00000000      0.00000000      0.00000000</v>
   <i name="OFIELD_Q6_NEAR">      0.00000000</i>
   <i name="OFIELD_Q6_FAR">      0.00000000</i>
   <i name="OFIELD_A">      0.00000000</i>
  </separator>
 </parameters>
 <atominfo>
  <atoms>       1 </atoms>
  <types>       1 </types>
  <array name="atoms" >
   <dimension dim="1">ion</dimension>
   <field type="string">element</field>
   <field type="int">atomtype</field>
   <set>
    <rc><c>Au</c><c>   1</c></rc>
   </set>
  </array>
  <array name="atomtypes" >
   <dimension dim="1">type</dimension>
   <field type="int">atomspertype</field>
   <field type="string">element</field>
   <field>mass</field>
   <field>valence</field>
   <field type="string">pseudopotential</field>
   <set>
    <rc><c>   1</c><c>Au</c><c>    196.96600000</c><c>     11.00000000</c><c> PAW Au 04Feb1998                       </c></rc>
   </set>
  </array>
 </atominfo>
 <structure name="initialpos" >
  <crystal>
   <varray name="basis" >
    <v>       0.00000000       1.97500000       1.97500000 </v>
    <v>       1.97500000       0.00000000       1.97500000 </v>
    <v>       1.97500000       1.97500000       0.00000000 </v>
   </varray>
   <i name="volume">     15.40746875 </i>
   <varray name="rec_basis" >
    <v>      -0.25316456       0.25316456       0.25316456 </v>
    <v>       0.25316456      -0.25316456       0.25316456 </v>
    <v>       0.25316456       0.25316456      -0.25316456 </v>
   </varray>
  </crystal>
  <varray name="positions" >
   <v>       0.00000000       0.00000000       0.00000000 </v>
  </varray>
 </structure>
 <calculation>
  <scstep>
   <time name="dav">    0.23    0.45</time>
   <time name="total">    0.24    0.48</time>
   <energy>
    <i name="alphaZ">    119.28496302 </i>
    <i name="ewald">  -1011.20830427 </i>
    <i name="hartreedc">   -118.04777399 </i>
    <i name="XCdc">     16.99342903 </i>
    <i name="pawpsdc">    791.14471321 </i>
    <i name="pawaedc">   -774.21009958 </i>
    <i name="eentropy">     -0.00165044 </i>
    <i name="bandstr">     40.68583901 </i>
    <i name="atom">    929.39633208 </i>
    <i name="e_fr_energy">     -5.96255193 </i>
    <i name="e_wo_entrp">     -5.96090149 </i>
    <i name="e_0_energy">     -5.96200178 </i>
   </energy>
  </scstep>
  <scstep>
   <time name="dav">    0.24    0.60</time>
   <time name="total">    0.25    0.61</time>
   <energy>
    <i name="e_fr_energy">     -4.38466802 </i>
    <i name="e_wo_entrp">     -4.38416706 </i>
    <i name="e_0_energy">     -4.38450104 </i>
   </energy>
  </scstep>
  <scstep>
   <time name="dav">    0.30    0.91</time>
   <time name="total">    0.30    0.93</time>
   <energy>
    <i name="e_fr_energy">     -4.31626290 </i>
    <i name="e_wo_entrp">     -4.31641888 </i>
    <i name="e_0_energy">     -4.31631490 </i>
   </energy>
  </scstep>
  <scstep>
   <time name="dav">    0.27    0.83</time>
   <time name="total">    0.28    0.84</time>
   <energy>
    <i name="e_fr_energy">     -4.31732408 </i>
    <i name="e_wo_entrp">     -4.31747028 </i>
    <i name="e_0_energy">     -4.31737282 </i>
   </energy>
  </scstep>
  <scstep>
   <time name="dav">    0.22    0.69</time>
   <time name="total">    0.23    0.70</time>
   <energy>
    <i name="alphaZ">    119.28496302 </i>
    <i name="ewald">  -1011.20830427 </i>
    <i name="hartreedc">    -99.25099176 </i>
    <i name="XCdc">     16.07149128 </i>
    <i name="pawpsdc">    771.07423398 </i>
    <i name="pawaedc">   -753.79966748 </i>
    <i name="eentropy">      0.00015502 </i>
    <i name="bandstr">     24.11446245 </i>
    <i name="atom">    929.39633208 </i>
    <i name="e_fr_energy">     -4.31732569 </i>
    <i name="e_wo_entrp">     -4.31748071 </i>
    <i name="e_0_energy">     -4.31737736 </i>
   </energy>
  </scstep>
  <structure>
   <crystal>
    <varray name="basis" >
     <v>       0.00000000       1.97500000       1.97500000 </v>
     <v>       1.97500000       0.00000000       1.97500000 </v>
     <v>       1.97500000       1.97500000       0.00000000 </v>
    </varray>
    <i name="volume">     15.40746875 </i>
    <varray name="rec_basis" >
     <v>      -0.25316456       0.25316456       0.25316456 </v>
     <v>       0.25316456      -0.25316456       0.25316456 </v>
     <v>       0.25316456       0.25316456      -0.25316456 </v>
    </varray>
   </crystal>
   <varray name="positions" >
    <v>       0.00000000       0.00000000       0.00000000 </v>
   </varray>
  </structure>
  <varray name="forces" >
   <v>       0.00000000       0.00000000       0.00000000 </v>
  </varray>
  <varray name="stress" >
   <v>     168.38769334       0.00000000      -0.00000000 </v>
   <v>       0.00000000     168.38769334      -0.00000000 </v>
   <v>       0.00000000       0.00000000     168.38769334 </v>
  </varray>
  <energy>
   <i name="e_fr_energy">     -4.31732569 </i>
   <i name="e_wo_entrp">     -4.31737736 </i>
   <i name="e_0_energy">      0.00015502 </i>
  </energy>
  <time name="totalsc">    1.49    4.11</time>
  <eigenvalues>
   <array>
    <dimension dim="1">band</dimension>
    <dimension dim="2">kpoint</dimension>
    <dimension dim="3">spin</dimension>
    <field>eigene</field>
    <field>occ</field>
    <set>
     <set comment="spin 1">
      <set comment="kpoint 1">
       <r>   -3.9945    1.0000 </r>
       <r>    1.6251    1.0000 </r>
       <r>    1.6978    1.0000 </r>
       <r>    1.6978    1.0000 </r>
       <r>    3.4796    1.0000 </r>
       <r>    3.4796    1.0000 </r>
       <r>   22.3845    0.0000 </r>
       <r>   26.0289    0.0000 </r>
       <r>   26.8378    0.0000 </r>
       <r>   26.8378    0.0000 </r>
       <r>   31.8881    0.0000 </r>
       <r>   35.7796    0.0000 </r>
      </set>
      <set comment="kpoint 2">
       <r>   -3.4970    1.0000 </r>
       <r>    1.4388    1.0000 </r>
       <r>    1.8582    1.0000 </r>
       <r>    1.8948    1.0000 </r>
       <r>    3.2981    1.0000 </r>
       <r>    3.5358    1.0000 </r>
       <r>   22.9042    0.0000 </r>
       <r>   24.0072    0.0000 </r>
       <r>   26.6044    0.0000 </r>
       <r>   27.8677    0.0000 </r>
       <r>   31.7553    0.0000 </r>
       <r>   34.5261    0.0000 </r>
      </set>
      <set comment="kpoint 3">
       <r>   -2.4326    1.0000 </r>
       <r>    1.2915    1.0000 </r>
       <r>    2.0325    1.0000 </r>
       <r>    2.0606    1.0000 </r>
       <r>    3.3042    1.0000 </r>
       <r>    3.7858    1.0000 </r>
       <r>   20.3063    0.0000 </r>
       <r>   23.5850    0.0000 </r>
       <r>   27.0507    0.0000 </r>
       <r>   29.3653    0.0000 </r>
       <r>   29.4950    0.0000 </r>
       <r>   32.2417    0.0000 </r>
      </set>
      <set comment="kpoint 4">
       <r>   -1.5176    1.0000 </r>
       <r>    1.8175    1.0000 </r>
       <r>    1.9232    1.0000 </r>
       <r>    2.0389    1.0000 </r>
       <r>    3.8865    1.0000 </r>
       <r>    4.4558    1.0000 </r>
       <r>   16.2452    0.0000 </r>
       <r>   22.8106    0.0000 </r>
       <r>   26.1533    0.0000 </r>
       <r>   28.5365    0.0000 </r>
       <r>   30.5752    0.0000 </r>
       <r>   31.9137    0.0000 </r>
      </set>
      <set comment="kpoint 5">
       <r>   -1.3164    1.0000 </r>
       <r>    1.6415    1.0000 </r>
       <r>    1.7243    1.0000 </r>
       <r>    3.7129    1.0000 </r>
       <r>    4.6000    1.0000 </r>
       <r>    5.3771    1.0000 </r>
       <r>   12.3407   -0.0000 </r>
       <r>   21.9093    0.0000 </r>
       <r>   25.0622    0.0000 </r>
       <r>   26.2273    0.0000 </r>
       <r>   32.7388    0.0000 </r>
       <r>   33.1778    0.0000 </r>
      </set>
      <set comment="kpoint 6">
       <r>   -1.3194    1.0000 </r>
       <r>    1.5628    1.0000 </r>
       <r>    1.6778    1.0000 </r>
       <r>    4.2562    1.0000 </r>
       <r>    4.9452    1.0000 </r>
       <r>    6.1225    1.0000 </r>
       <r>   10.6761   -0.0000 </r>
       <r>   21.6615    0.0000 </r>
       <r>   25.0850    0.0000 </r>
       <r>   25.1916    0.0000 </r>
       <r>   33.4055    0.0000 </r>
       <r>   33.5090    0.0000 </r>
      </set>
      <set comment="kpoint 7">
       <r>   -1.3362    1.0000 </r>
       <r>    1.6764    1.0000 </r>
       <r>    1.8094    1.0000 </r>
       <r>    3.0752    1.0000 </r>
       <r>    4.6997    1.0000 </r>
       <r>    4.7771    1.0000 </r>
       <r>   13.5529    0.0000 </r>
       <r>   22.1672    0.0000 </r>
       <r>   25.5974    0.0000 </r>
       <r>   26.4927    0.0000 </r>
       <r>   32.6931    0.0000 </r>
       <r>   32.7630    0.0000 </r>
      </set>
      <set comment="kpoint 8">
       <r>   -1.7423    1.0000 </r>
       <r>    1.5712    1.0000 </r>
       <r>    1.9353    1.0000 </r>
       <r>    2.0122    1.0000 </r>
       <r>    3.7710    1.0000 </r>
       <r>    4.0970    1.0000 </r>
       <r>   17.6214    0.0000 </r>
       <r>   23.2113    0.0000 </r>
       <r>   26.7241    0.0000 </r>
       <r>   28.6361    0.0000 </r>
       <r>   30.3159    0.0000 </r>
       <r>   32.0833    0.0000 </r>
      </set>
      <set comment="kpoint 9">
       <r>   -2.8211    1.0000 </r>
       <r>    1.2824    1.0000 </r>
       <r>    2.0242    1.0000 </r>
       <r>    2.0401    1.0000 </r>
       <r>    3.2542    1.0000 </r>
       <r>    3.6410    1.0000 </r>
       <r>   21.5725    0.0000 </r>
       <r>   23.6087    0.0000 </r>
       <r>   27.0241    0.0000 </r>
       <r>   28.4106    0.0000 </r>
       <r>   30.3793    0.0000 </r>
       <r>   32.9376    0.0000 </r>
      </set>
      <set comment="kpoint 10">
       <r>   -3.7412    1.0000 </r>
       <r>    1.4949    1.0000 </r>
       <r>    1.8089    1.0000 </r>
       <r>    1.8136    1.0000 </r>
       <r>    3.3277    1.0000 </r>
       <r>    3.5472    1.0000 </r>
       <r>   22.6952    0.0000 </r>
       <r>   25.0937    0.0000 </r>
       <r>   26.6721    0.0000 </r>
       <r>   27.0125    0.0000 </r>
       <r>   32.7978    0.0000 </r>
       <r>   34.8644    0.0000 </r>
      </set>
      <set comment="kpoint 11">
       <r>   -3.2504    1.0000 </r>
       <r>    1.2375    1.0000 </r>
       <r>    2.0407    1.0000 </r>
       <r>    2.0453    1.0000 </r>
       <r>    3.0639    1.0000 </r>
       <r>    3.6764    1.0000 </r>
       <r>   23.2478    0.0000 </r>
       <r>   24.2021    0.0000 </r>
       <r>   26.1528    0.0000 </r>
       <r>   26.6904    0.0000 </r>
       <r>   32.3848    0.0000 </r>
       <r>   33.8114    0.0000 </r>
      </set>
      <set comment="kpoint 12">
       <r>   -2.3630    1.0000 </r>
       <r>    0.9441    1.0000 </r>
       <r>    2.1504    1.0000 </r>
       <r>    2.3701    1.0000 </r>
       <r>    2.9958    1.0000 </r>
       <r>    3.9360    1.0000 </r>
       <r>   21.8489    0.0000 </r>
       <r>   23.6095    0.0000 </r>
       <r>   25.6247    0.0000 </r>
       <r>   26.9326    0.0000 </r>
       <r>   30.3351    0.0000 </r>
       <r>   32.9447    0.0000 </r>
      </set>
      <set comment="kpoint 13">
       <r>   -1.2972    1.0000 </r>
       <r>    1.0380    1.0000 </r>
       <r>    1.7886    1.0000 </r>
       <r>    2.3809    1.0000 </r>
       <r>    3.7678    1.0000 </r>
       <r>    4.6139    1.0000 </r>
       <r>   17.8642    0.0000 </r>
       <r>   23.0880    0.0000 </r>
       <r>   24.5803    0.0000 </r>
       <r>   27.0569    0.0000 </r>
       <r>   30.8756    0.0000 </r>
       <r>   32.5022    0.0000 </r>
      </set>
      <set comment="kpoint 14">
       <r>   -0.9199    1.0000 </r>
       <r>    1.4305    1.0000 </r>
       <r>    2.0457    1.0000 </r>
       <r>    2.2355    1.0000 </r>
       <r>    4.6692    1.0000 </r>
       <r>    5.8891    1.0000 </r>
       <r>   13.7217    0.0000 </r>
       <r>   22.3437    0.0000 </r>
       <r>   23.4343    0.0000 </r>
       <r>   25.7335    0.0000 </r>
       <r>   32.5743    0.0000 </r>
       <r>   33.9222    0.0000 </r>
      </set>
      <set comment="kpoint 15">
       <r>   -0.9090    1.0000 </r>
       <r>    1.2798    1.0000 </r>
       <r>    2.0257    1.0000 </r>
       <r>    3.0451    1.0000 </r>
       <r>    4.8871    1.0000 </r>
       <r>    7.7612   -0.0000 </r>
       <r>   10.6184   -0.0000 </r>
       <r>   21.8360    0.0000 </r>
       <r>   23.1103    0.0000 </r>
       <r>   24.7577    0.0000 </r>
       <r>   33.3083    0.0000 </r>
       <r>   34.2833    0.0000 </r>
      </set>
      <set comment="kpoint 16">
       <r>   -0.8830    1.0000 </r>
       <r>    1.3759    1.0000 </r>
       <r>    2.0549    1.0000 </r>
       <r>    2.6610    1.0000 </r>
       <r>    4.4976    1.0000 </r>
       <r>    6.6512    1.0140 </r>
       <r>   12.5402    0.0000 </r>
       <r>   21.7377    0.0000 </r>
       <r>   23.2704    0.0000 </r>
       <r>   25.8808    0.0000 </r>
       <r>   32.2450    0.0000 </r>
       <r>   34.0045    0.0000 </r>
      </set>
      <set comment="kpoint 17">
       <r>   -1.0471    1.0000 </r>
       <r>    1.3639    1.0000 </r>
       <r>    1.7195    1.0000 </r>
       <r>    2.2774    1.0000 </r>
       <r>    3.6696    1.0000 </r>
       <r>    5.2304    1.0000 </r>
       <r>   16.4848    0.0000 </r>
       <r>   22.1424    0.0000 </r>
       <r>   24.3519    0.0000 </r>
       <r>   28.0008    0.0000 </r>
       <r>   30.2124    0.0000 </r>
       <r>   33.0440    0.0000 </r>
      </set>
      <set comment="kpoint 18">
       <r>   -1.9804    1.0000 </r>
       <r>    0.9935    1.0000 </r>
       <r>    2.0227    1.0000 </r>
       <r>    2.3982    1.0000 </r>
       <r>    2.9918    1.0000 </r>
       <r>    4.2433    1.0000 </r>
       <r>   20.4462    0.0000 </r>
       <r>   22.8288    0.0000 </r>
       <r>   26.1247    0.0000 </r>
       <r>   27.1852    0.0000 </r>
       <r>   31.0647    0.0000 </r>
       <r>   32.1735    0.0000 </r>
      </set>
      <set comment="kpoint 19">
       <r>   -3.0244    1.0000 </r>
       <r>    1.2416    1.0000 </r>
       <r>    2.0426    1.0000 </r>
       <r>    2.0574    1.0000 </r>
       <r>    3.1128    1.0000 </r>
       <r>    3.6869    1.0000 </r>
       <r>   22.7627    0.0000 </r>
       <r>   23.4589    0.0000 </r>
       <r>   26.2073    0.0000 </r>
       <r>   28.0514    0.0000 </r>
       <r>   30.7608    0.0000 </r>
       <r>   33.9229    0.0000 </r>
      </set>
      <set comment="kpoint 20">
       <r>   -1.7796    1.0000 </r>
       <r>    0.5266    1.0000 </r>
       <r>    2.3212    1.0000 </r>
       <r>    2.8181    1.0000 </r>
       <r>    3.0403    1.0000 </r>
       <r>    4.0817    1.0000 </r>
       <r>   22.4084    0.0000 </r>
       <r>   23.6544    0.0000 </r>
       <r>   24.4323    0.0000 </r>
       <r>   25.3705    0.0000 </r>
       <r>   27.4852    0.0000 </r>
       <r>   34.1589    0.0000 </r>
      </set>
      <set comment="kpoint 21">
       <r>   -0.9428    1.0000 </r>
       <r>    0.2638    1.0000 </r>
       <r>    2.0145    1.0000 </r>
       <r>    3.2254    1.0000 </r>
       <r>    3.8046    1.0000 </r>
       <r>    4.6382    1.0000 </r>
       <r>   19.6433    0.0000 </r>
       <r>   21.6723    0.0000 </r>
       <r>   23.2746    0.0000 </r>
       <r>   26.1196    0.0000 </r>
       <r>   27.6102    0.0000 </r>
       <r>   34.2787    0.0000 </r>
      </set>
      <set comment="kpoint 22">
       <r>   -0.4706    1.0000 </r>
       <r>    0.5560    1.0000 </r>
       <r>    1.7272    1.0000 </r>
       <r>    3.0670    1.0000 </r>
       <r>    4.7788    1.0000 </r>
       <r>    6.2018    1.0000 </r>
       <r>   15.3673    0.0000 </r>
       <r>   20.9859    0.0000 </r>
       <r>   21.4799    0.0000 </r>
       <r>   25.6515    0.0000 </r>
       <r>   30.9080    0.0000 </r>
       <r>   34.4076    0.0000 </r>
      </set>
      <set comment="kpoint 23">
       <r>   -0.3434    1.0000 </r>
       <r>    0.8509    1.0000 </r>
       <r>    1.9495    1.0000 </r>
       <r>    2.8291    1.0000 </r>
       <r>    4.9286    1.0000 </r>
       <r>    8.8474   -0.0000 </r>
       <r>   11.5909   -0.0000 </r>
       <r>   19.6618    0.0000 </r>
       <r>   21.5615    0.0000 </r>
       <r>   25.0686    0.0000 </r>
       <r>   33.4870    0.0000 </r>
       <r>   35.3781    0.0000 </r>
      </set>
      <set comment="kpoint 24">
       <r>   -0.1405    1.0000 </r>
       <r>    0.9297    1.0000 </r>
       <r>    1.9598    1.0000 </r>
       <r>    2.7058    1.0000 </r>
       <r>    4.4448    1.0000 </r>
       <r>    8.6764   -0.0000 </r>
       <r>   12.2100   -0.0000 </r>
       <r>   18.5108    0.0000 </r>
       <r>   22.7880    0.0000 </r>
       <r>   25.2557    0.0000 </r>
       <r>   32.4992    0.0000 </r>
       <r>   35.0068    0.0000 </r>
      </set>
      <set comment="kpoint 25">
       <r>   -0.0268    1.0000 </r>
       <r>    1.0348    1.0000 </r>
       <r>    1.3110    1.0000 </r>
       <r>    2.8011    1.0000 </r>
       <r>    3.6253    1.0000 </r>
       <r>    6.8067    1.0283 </r>
       <r>   15.7447    0.0000 </r>
       <r>   18.4708    0.0000 </r>
       <r>   23.8717    0.0000 </r>
       <r>   27.0637    0.0000 </r>
       <r>   30.0167    0.0000 </r>
       <r>   34.9208    0.0000 </r>
      </set>
      <set comment="kpoint 26">
       <r>   -0.8584    1.0000 </r>
       <r>    0.8996    1.0000 </r>
       <r>    1.6899    1.0000 </r>
       <r>    2.6611    1.0000 </r>
       <r>    3.1524    1.0000 </r>
       <r>    5.3422    1.0000 </r>
       <r>   17.9586    0.0000 </r>
       <r>   20.8126    0.0000 </r>
       <r>   24.8143    0.0000 </r>
       <r>   28.0053    0.0000 </r>
       <r>   29.6381    0.0000 </r>
       <r>   33.6643    0.0000 </r>
      </set>
      <set comment="kpoint 27">
       <r>   -1.8993    1.0000 </r>
       <r>    1.2000    1.0000 </r>
       <r>    1.9923    1.0000 </r>
       <r>    2.1735    1.0000 </r>
       <r>    3.3738    1.0000 </r>
       <r>    4.1564    1.0000 </r>
       <r>   19.0822    0.0000 </r>
       <r>   23.4427    0.0000 </r>
       <r>   26.0195    0.0000 </r>
       <r>   28.3263    0.0000 </r>
       <r>   30.5705    0.0000 </r>
       <r>   31.7249    0.0000 </r>
      </set>
      <set comment="kpoint 28">
       <r>   -0.8323    1.0000 </r>
       <r>   -0.1765    1.0000 </r>
       <r>    3.0072    1.0000 </r>
       <r>    3.8534    1.0000 </r>
       <r>    4.3198    1.0000 </r>
       <r>    4.5736    1.0000 </r>
       <r>   19.5936    0.0000 </r>
       <r>   20.5074    0.0000 </r>
       <r>   20.9812    0.0000 </r>
       <r>   24.9704    0.0000 </r>
       <r>   26.9242    0.0000 </r>
       <r>   36.7158    0.0000 </r>
      </set>
      <set comment="kpoint 29">
       <r>   -0.6968    1.0000 </r>
       <r>   -0.3014    1.0000 </r>
       <r>    3.0760    1.0000 </r>
       <r>    4.2054    1.0000 </r>
       <r>    4.7965    1.0000 </r>
       <r>    6.2166    1.0000 </r>
       <r>   16.6573    0.0000 </r>
       <r>   18.7951    0.0000 </r>
       <r>   19.4204    0.0000 </r>
       <r>   26.0640    0.0000 </r>
       <r>   28.0447    0.0000 </r>
       <r>   36.3648    0.0000 </r>
      </set>
      <set comment="kpoint 30">
       <r>   -0.5133    1.0000 </r>
       <r>    0.0553    1.0000 </r>
       <r>    2.6635    1.0000 </r>
       <r>    3.8451    1.0000 </r>
       <r>    5.0467    1.0000 </r>
       <r>    9.0846   -0.0000 </r>
       <r>   13.1718    0.0000 </r>
       <r>   17.1144    0.0000 </r>
       <r>   19.4880    0.0000 </r>
       <r>   26.2391    0.0000 </r>
       <r>   30.9219    0.0000 </r>
       <r>   35.3468    0.0000 </r>
      </set>
      <set comment="kpoint 31">
       <r>   -0.1731    1.0000 </r>
       <r>    0.6351    1.0000 </r>
       <r>    2.0316    1.0000 </r>
       <r>    3.4507    1.0000 </r>
       <r>    4.6535    1.0000 </r>
       <r>   10.3873   -0.0000 </r>
       <r>   12.6156    0.0000 </r>
       <r>   15.3677    0.0000 </r>
       <r>   20.9777    0.0000 </r>
       <r>   25.8628    0.0000 </r>
       <r>   33.8663    0.0000 </r>
       <r>   34.6362    0.0000 </r>
      </set>
      <set comment="kpoint 32">
       <r>    0.1711    1.0000 </r>
       <r>    0.9734    1.0000 </r>
       <r>    1.4551    1.0000 </r>
       <r>    3.0256    1.0000 </r>
       <r>    4.1595    1.0000 </r>
       <r>    8.5176   -0.0000 </r>
       <r>   14.1571    0.0000 </r>
       <r>   16.3714    0.0000 </r>
       <r>   22.8516    0.0000 </r>
       <r>   25.6808    0.0000 </r>
       <r>   32.0120    0.0000 </r>
       <r>   35.2210    0.0000 </r>
      </set>
      <set comment="kpoint 33">
       <r>   -0.4734    1.0000 </r>
       <r>    1.2560    1.0000 </r>
       <r>    1.8073    1.0000 </r>
       <r>    2.4406    1.0000 </r>
       <r>    4.0537    1.0000 </r>
       <r>    6.7644    1.0354 </r>
       <r>   14.1075    0.0000 </r>
       <r>   20.2218    0.0000 </r>
       <r>   23.5077    0.0000 </r>
       <r>   26.4925    0.0000 </r>
       <r>   31.0185    0.0000 </r>
       <r>   34.4324    0.0000 </r>
      </set>
      <set comment="kpoint 34">
       <r>   -1.2369    1.0000 </r>
       <r>    1.6783    1.0000 </r>
       <r>    1.9710    1.0000 </r>
       <r>    2.2038    1.0000 </r>
       <r>    4.2073    1.0000 </r>
       <r>    5.0182    1.0000 </r>
       <r>   14.9499    0.0000 </r>
       <r>   22.5437    0.0000 </r>
       <r>   24.8073    0.0000 </r>
       <r>   27.2760    0.0000 </r>
       <r>   31.5158    0.0000 </r>
       <r>   32.7917    0.0000 </r>
      </set>
      <set comment="kpoint 35">
       <r>   -1.0071    1.0000 </r>
       <r>   -0.6366    1.0000 </r>
       <r>    4.6311    1.0000 </r>
       <r>    4.6791    1.0000 </r>
       <r>    5.0839    1.0000 </r>
       <r>    6.5963    1.0060 </r>
       <r>   15.4063    0.0000 </r>
       <r>   17.8719    0.0000 </r>
       <r>   18.1829    0.0000 </r>
       <r>   25.3880    0.0000 </r>
       <r>   27.9882    0.0000 </r>
       <r>   37.6511    0.0000 </r>
      </set>
      <set comment="kpoint 36">
       <r>   -0.9296    1.0000 </r>
       <r>   -0.5772    1.0000 </r>
       <r>    4.1656    1.0000 </r>
       <r>    4.6182    1.0000 </r>
       <r>    5.2613    1.0000 </r>
       <r>    8.7604   -0.0000 </r>
       <r>   13.4403    0.0000 </r>
       <r>   16.8151    0.0000 </r>
       <r>   17.7833    0.0000 </r>
       <r>   26.4119    0.0000 </r>
       <r>   28.5398    0.0000 </r>
       <r>   36.7368    0.0000 </r>
      </set>
      <set comment="kpoint 37">
       <r>   -0.5800    1.0000 </r>
       <r>   -0.0484    1.0000 </r>
       <r>    2.9990    1.0000 </r>
       <r>    4.0501    1.0000 </r>
       <r>    5.0410    1.0000 </r>
       <r>   10.5583   -0.0000 </r>
       <r>   12.3132   -0.0000 </r>
       <r>   15.6892    0.0000 </r>
       <r>   19.1096    0.0000 </r>
       <r>   26.4969    0.0000 </r>
       <r>   30.9564    0.0000 </r>
       <r>   35.4489    0.0000 </r>
      </set>
      <set comment="kpoint 38">
       <r>   -0.2049    1.0000 </r>
       <r>    0.6877    1.0000 </r>
       <r>    1.9818    1.0000 </r>
       <r>    3.1889    1.0000 </r>
       <r>    4.8041    1.0000 </r>
       <r>   10.5995   -0.0000 </r>
       <r>   10.9288   -0.0000 </r>
       <r>   17.4562    0.0000 </r>
       <r>   21.1719    0.0000 </r>
       <r>   25.5165    0.0000 </r>
       <r>   33.6567    0.0000 </r>
       <r>   35.0338    0.0000 </r>
      </set>
      <set comment="kpoint 39">
       <r>   -0.5484    1.0000 </r>
       <r>    1.0698    1.0000 </r>
       <r>    2.3364    1.0000 </r>
       <r>    2.5125    1.0000 </r>
       <r>    4.7327    1.0000 </r>
       <r>    8.7039   -0.0000 </r>
       <r>   10.7366   -0.0000 </r>
       <r>   20.5609    0.0000 </r>
       <r>   22.7061    0.0000 </r>
       <r>   24.8085    0.0000 </r>
       <r>   33.0660    0.0000 </r>
       <r>   34.6818    0.0000 </r>
      </set>
      <set comment="kpoint 40">
       <r>   -1.1718    1.0000 </r>
       <r>    1.4867    1.0000 </r>
       <r>    1.8136    1.0000 </r>
       <r>    3.5186    1.0000 </r>
       <r>    4.8313    1.0000 </r>
       <r>    6.4194    1.0001 </r>
       <r>   11.3319   -0.0000 </r>
       <r>   21.8820    0.0000 </r>
       <r>   24.2177    0.0000 </r>
       <r>   25.3969    0.0000 </r>
       <r>   33.1422    0.0000 </r>
       <r>   33.7080    0.0000 </r>
      </set>
      <set comment="kpoint 41">
       <r>   -1.0987    1.0000 </r>
       <r>   -0.7342    1.0000 </r>
       <r>    4.8228    1.0000 </r>
       <r>    4.9926    1.0000 </r>
       <r>    5.2766    1.0000 </r>
       <r>    7.7974   -0.0000 </r>
       <r>   13.7592    0.0000 </r>
       <r>   17.2850    0.0000 </r>
       <r>   17.6456    0.0000 </r>
       <r>   25.5682    0.0000 </r>
       <r>   28.2084    0.0000 </r>
       <r>   37.4140    0.0000 </r>
      </set>
      <set comment="kpoint 42">
       <r>   -0.8354    1.0000 </r>
       <r>   -0.4835    1.0000 </r>
       <r>    3.7341    1.0000 </r>
       <r>    4.5322    1.0000 </r>
       <r>    5.0739    1.0000 </r>
       <r>    7.5361   -0.0007 </r>
       <r>   14.9198    0.0000 </r>
       <r>   17.5080    0.0000 </r>
       <r>   18.3163    0.0000 </r>
       <r>   26.2533    0.0000 </r>
       <r>   28.3678    0.0000 </r>
       <r>   36.7147    0.0000 </r>
      </set>
      <set comment="kpoint 43">
       <r>   -0.4373    1.0000 </r>
       <r>    0.2652    1.0000 </r>
       <r>    2.1663    1.0000 </r>
       <r>    3.4815    1.0000 </r>
       <r>    4.9868    1.0000 </r>
       <r>    7.5394   -0.0006 </r>
       <r>   14.1891    0.0000 </r>
       <r>   19.1086    0.0000 </r>
       <r>   20.2386    0.0000 </r>
       <r>   25.8737    0.0000 </r>
       <r>   30.8936    0.0000 </r>
       <r>   35.0222    0.0000 </r>
      </set>
      <set comment="kpoint 44">
       <r>   -0.6022    1.0000 </r>
       <r>    1.1251    1.0000 </r>
       <r>    1.9795    1.0000 </r>
       <r>    2.4838    1.0000 </r>
       <r>    4.9087    1.0000 </r>
       <r>    7.2085   -0.0223 </r>
       <r>   12.5826    0.0000 </r>
       <r>   21.6495    0.0000 </r>
       <r>   22.1244    0.0000 </r>
       <r>   24.9447    0.0000 </r>
       <r>   33.1981    0.0000 </r>
       <r>   35.0120    0.0000 </r>
      </set>
      <set comment="kpoint 45">
       <r>   -0.8734    1.0000 </r>
       <r>   -0.4468    1.0000 </r>
       <r>    3.9164    1.0000 </r>
       <r>    4.3451    1.0000 </r>
       <r>    4.8290    1.0000 </r>
       <r>    5.2876    1.0000 </r>
       <r>   17.6188    0.0000 </r>
       <r>   19.0365    0.0000 </r>
       <r>   19.1782    0.0000 </r>
       <r>   25.1329    0.0000 </r>
       <r>   27.5522    0.0000 </r>
       <r>   37.7804    0.0000 </r>
      </set>
      <set comment="kpoint 46">
       <r>   -0.6520    1.0000 </r>
       <r>   -0.0454    1.0000 </r>
       <r>    2.3907    1.0000 </r>
       <r>    3.7277    1.0000 </r>
       <r>    4.3878    1.0000 </r>
       <r>    5.2255    1.0000 </r>
       <r>   18.2372    0.0000 </r>
       <r>   20.2302    0.0000 </r>
       <r>   21.2391    0.0000 </r>
       <r>   26.0182    0.0000 </r>
       <r>   27.6478    0.0000 </r>
       <r>   35.4544    0.0000 </r>
      </set>
      <set comment="kpoint 47">
       <r>   -0.7623    1.0000 </r>
       <r>    0.8345    1.0000 </r>
       <r>    1.5973    1.0000 </r>
       <r>    2.6847    1.0000 </r>
       <r>    4.3474    1.0000 </r>
       <r>    5.2256    1.0000 </r>
       <r>   16.6189    0.0000 </r>
       <r>   22.2507    0.0000 </r>
       <r>   23.1519    0.0000 </r>
       <r>   25.9586    0.0000 </r>
       <r>   30.9318    0.0000 </r>
       <r>   33.5361    0.0000 </r>
      </set>
      <set comment="kpoint 48">
       <r>   -1.1154    1.0000 </r>
       <r>    0.1566    1.0000 </r>
       <r>    2.4062    1.0000 </r>
       <r>    3.3220    1.0000 </r>
       <r>    3.6011    1.0000 </r>
       <r>    4.3260    1.0000 </r>
       <r>   21.1544    0.0000 </r>
       <r>   22.0514    0.0000 </r>
       <r>   23.2765    0.0000 </r>
       <r>   25.2934    0.0000 </r>
       <r>   26.2295    0.0000 </r>
       <r>   35.2956    0.0000 </r>
      </set>
      <set comment="kpoint 49">
       <r>   -1.6026    1.0000 </r>
       <r>    0.6044    1.0000 </r>
       <r>    2.0462    1.0000 </r>
       <r>    2.7656    1.0000 </r>
       <r>    3.2616    1.0000 </r>
       <r>    4.2522    1.0000 </r>
       <r>   20.8419    0.0000 </r>
       <r>   22.9766    0.0000 </r>
       <r>   24.9046    0.0000 </r>
       <r>   26.0446    0.0000 </r>
       <r>   28.8130    0.0000 </r>
       <r>   33.2231    0.0000 </r>
      </set>
      <set comment="kpoint 50">
       <r>   -2.5638    1.0000 </r>
       <r>    0.9001    1.0000 </r>
       <r>    2.3196    1.0000 </r>
       <r>    2.3839    1.0000 </r>
       <r>    2.8161    1.0000 </r>
       <r>    3.8598    1.0000 </r>
       <r>   23.2737    0.0000 </r>
       <r>   24.1032    0.0000 </r>
       <r>   25.1079    0.0000 </r>
       <r>   25.8950    0.0000 </r>
       <r>   30.2254    0.0000 </r>
       <r>   33.5802    0.0000 </r>
      </set>
      <set comment="kpoint 51">
       <r>   -3.2662    1.0000 </r>
       <r>    1.4190    1.0000 </r>
       <r>    1.9172    1.0000 </r>
       <r>    1.9172    1.0000 </r>
       <r>    3.4188    1.0000 </r>
       <r>    3.4188    1.0000 </r>
       <r>   22.5938    0.0000 </r>
       <r>   23.4411    0.0000 </r>
       <r>   27.6714    0.0000 </r>
       <r>   27.6714    0.0000 </r>
       <r>   31.2214    0.0000 </r>
       <r>   33.9281    0.0000 </r>
      </set>
      <set comment="kpoint 52">
       <r>   -2.5885    1.0000 </r>
       <r>    1.1735    1.0000 </r>
       <r>    2.0606    1.0000 </r>
       <r>    2.1582    1.0000 </r>
       <r>    3.0468    1.0000 </r>
       <r>    3.8741    1.0000 </r>
       <r>   21.5815    0.0000 </r>
       <r>   23.2954    0.0000 </r>
       <r>   26.2030    0.0000 </r>
       <r>   28.6847    0.0000 </r>
       <r>   29.7632    0.0000 </r>
       <r>   33.6837    0.0000 </r>
      </set>
      <set comment="kpoint 53">
       <r>   -1.4568    1.0000 </r>
       <r>    0.9863    1.0000 </r>
       <r>    1.9229    1.0000 </r>
       <r>    2.4880    1.0000 </r>
       <r>    2.9343    1.0000 </r>
       <r>    4.7384    1.0000 </r>
       <r>   19.1592    0.0000 </r>
       <r>   21.8925    0.0000 </r>
       <r>   25.7789    0.0000 </r>
       <r>   27.4939    0.0000 </r>
       <r>   30.6750    0.0000 </r>
       <r>   32.7027    0.0000 </r>
      </set>
      <set comment="kpoint 54">
       <r>   -0.7688    1.0000 </r>
       <r>    1.4368    1.0000 </r>
       <r>    1.8297    1.0000 </r>
       <r>    2.2445    1.0000 </r>
       <r>    3.7330    1.0000 </r>
       <r>    5.9342    1.0000 </r>
       <r>   15.2390    0.0000 </r>
       <r>   21.1788    0.0000 </r>
       <r>   24.0404    0.0000 </r>
       <r>   27.6427    0.0000 </r>
       <r>   30.1440    0.0000 </r>
       <r>   33.7970    0.0000 </r>
      </set>
      <set comment="kpoint 55">
       <r>   -0.7600    1.0000 </r>
       <r>    1.2615    1.0000 </r>
       <r>    2.1138    1.0000 </r>
       <r>    2.7831    1.0000 </r>
       <r>    4.5555    1.0000 </r>
       <r>    7.5656   -0.0003 </r>
       <r>   11.5391   -0.0000 </r>
       <r>   21.0916    0.0000 </r>
       <r>   23.4054    0.0000 </r>
       <r>   25.0715    0.0000 </r>
       <r>   32.7683    0.0000 </r>
       <r>   34.0196    0.0000 </r>
      </set>
      <set comment="kpoint 56">
       <r>   -0.8063    1.0000 </r>
       <r>    1.2277    1.0000 </r>
       <r>    2.1714    1.0000 </r>
       <r>    2.5968    1.0000 </r>
       <r>    4.9827    1.0000 </r>
       <r>    7.4991   -0.0016 </r>
       <r>   11.3473   -0.0000 </r>
       <r>   21.6975    0.0000 </r>
       <r>   23.6714    0.0000 </r>
       <r>   23.8977    0.0000 </r>
       <r>   33.8614    0.0000 </r>
       <r>   34.2295    0.0000 </r>
      </set>
      <set comment="kpoint 57">
       <r>   -0.8753    1.0000 </r>
       <r>    1.3297    1.0000 </r>
       <r>    1.6223    1.0000 </r>
       <r>    2.3648    1.0000 </r>
       <r>    4.8048    1.0000 </r>
       <r>    5.2728    1.0000 </r>
       <r>   15.0853    0.0000 </r>
       <r>   22.7406    0.0000 </r>
       <r>   23.5455    0.0000 </r>
       <r>   25.2406    0.0000 </r>
       <r>   32.7983    0.0000 </r>
       <r>   33.5632    0.0000 </r>
      </set>
      <set comment="kpoint 58">
       <r>   -1.4933    1.0000 </r>
       <r>    0.7545    1.0000 </r>
       <r>    1.9339    1.0000 </r>
       <r>    2.5252    1.0000 </r>
       <r>    3.6739    1.0000 </r>
       <r>    4.2610    1.0000 </r>
       <r>   19.3614    0.0000 </r>
       <r>   23.9628    0.0000 </r>
       <r>   24.2236    0.0000 </r>
       <r>   26.3778    0.0000 </r>
       <r>   29.7484    0.0000 </r>
       <r>   33.4197    0.0000 </r>
      </set>
      <set comment="kpoint 59">
       <r>   -2.2017    1.0000 </r>
       <r>    1.0416    1.0000 </r>
       <r>    2.0814    1.0000 </r>
       <r>    2.2423    1.0000 </r>
       <r>    3.2567    1.0000 </r>
       <r>    3.9328    1.0000 </r>
       <r>   20.4901    0.0000 </r>
       <r>   23.8858    0.0000 </r>
       <r>   25.7884    0.0000 </r>
       <r>   27.7322    0.0000 </r>
       <r>   30.1644    0.0000 </r>
       <r>   32.8404    0.0000 </r>
      </set>
      <set comment="kpoint 60">
       <r>   -1.2765    1.0000 </r>
       <r>    0.7428    1.0000 </r>
       <r>    1.8150    1.0000 </r>
       <r>    2.7311    1.0000 </r>
       <r>    3.2347    1.0000 </r>
       <r>    4.7153    1.0000 </r>
       <r>   19.3214    0.0000 </r>
       <r>   21.9314    0.0000 </r>
       <r>   24.9687    0.0000 </r>
       <r>   26.9591    0.0000 </r>
       <r>   30.4175    0.0000 </r>
       <r>   32.3153    0.0000 </r>
      </set>
      <set comment="kpoint 61">
       <r>   -0.2879    1.0000 </r>
       <r>    0.7685    1.0000 </r>
       <r>    1.3461    1.0000 </r>
       <r>    2.9896    1.0000 </r>
       <r>    3.6008    1.0000 </r>
       <r>    6.0473    1.0000 </r>
       <r>   16.8204    0.0000 </r>
       <r>   19.6321    0.0000 </r>
       <r>   23.4879    0.0000 </r>
       <r>   27.9697    0.0000 </r>
       <r>   29.4135    0.0000 </r>
       <r>   34.3192    0.0000 </r>
      </set>
      <set comment="kpoint 62">
       <r>   -0.1655    1.0000 </r>
       <r>    0.9590    1.0000 </r>
       <r>    1.6928    1.0000 </r>
       <r>    2.7565    1.0000 </r>
       <r>    4.4327    1.0000 </r>
       <r>    7.8339   -0.0000 </r>
       <r>   13.0972    0.0000 </r>
       <r>   19.3309    0.0000 </r>
       <r>   22.1477    0.0000 </r>
       <r>   26.3110    0.0000 </r>
       <r>   31.6118    0.0000 </r>
       <r>   35.4394    0.0000 </r>
      </set>
      <set comment="kpoint 63">
       <r>   -0.2499    1.0000 </r>
       <r>    0.8501    1.0000 </r>
       <r>    2.0774    1.0000 </r>
       <r>    2.6789    1.0000 </r>
       <r>    4.7878    1.0000 </r>
       <r>    9.5314   -0.0000 </r>
       <r>   10.6982   -0.0000 </r>
       <r>   20.0079    0.0000 </r>
       <r>   21.0731    0.0000 </r>
       <r>   25.7023    0.0000 </r>
       <r>   32.6698    0.0000 </r>
       <r>   35.8665    0.0000 </r>
      </set>
      <set comment="kpoint 64">
       <r>   -0.3023    1.0000 </r>
       <r>    0.9541    1.0000 </r>
       <r>    1.4386    1.0000 </r>
       <r>    2.9081    1.0000 </r>
       <r>    4.5802    1.0000 </r>
       <r>    7.0240    0.4556 </r>
       <r>   14.1343    0.0000 </r>
       <r>   20.2422    0.0000 </r>
       <r>   21.7060    0.0000 </r>
       <r>   26.3227    0.0000 </r>
       <r>   31.5861    0.0000 </r>
       <r>   34.7621    0.0000 </r>
      </set>
      <set comment="kpoint 65">
       <r>   -0.6360    1.0000 </r>
       <r>    0.4746    1.0000 </r>
       <r>    1.6112    1.0000 </r>
       <r>    3.1424    1.0000 </r>
       <r>    3.7148    1.0000 </r>
       <r>    5.3025    1.0000 </r>
       <r>   18.1336    0.0000 </r>
       <r>   20.7431    0.0000 </r>
       <r>   23.3151    0.0000 </r>
       <r>   27.1330    0.0000 </r>
       <r>   29.2322    0.0000 </r>
       <r>   33.3944    0.0000 </r>
      </set>
      <set comment="kpoint 66">
       <r>   -0.8773    1.0000 </r>
       <r>    0.4613    1.0000 </r>
       <r>    1.8458    1.0000 </r>
       <r>    2.8837    1.0000 </r>
       <r>    4.4271    1.0000 </r>
       <r>    4.5816    1.0000 </r>
       <r>   18.1227    0.0000 </r>
       <r>   22.6236    0.0000 </r>
       <r>   23.1725    0.0000 </r>
       <r>   25.4179    0.0000 </r>
       <r>   29.3086    0.0000 </r>
       <r>   34.3591    0.0000 </r>
      </set>
      <set comment="kpoint 67">
       <r>   -0.3262    1.0000 </r>
       <r>    0.2182    1.0000 </r>
       <r>    1.7363    1.0000 </r>
       <r>    3.6063    1.0000 </r>
       <r>    4.2357    1.0000 </r>
       <r>    6.0944    1.0000 </r>
       <r>   16.8846    0.0000 </r>
       <r>   19.4576    0.0000 </r>
       <r>   21.4475    0.0000 </r>
       <r>   27.1690    0.0000 </r>
       <r>   28.9341    0.0000 </r>
       <r>   34.2855    0.0000 </r>
      </set>
      <set comment="kpoint 68">
       <r>    0.0519    1.0000 </r>
       <r>    0.3921    1.0000 </r>
       <r>    1.4822    1.0000 </r>
       <r>    3.6967    1.0000 </r>
       <r>    4.5925    1.0000 </r>
       <r>    8.1303   -0.0000 </r>
       <r>   14.7657    0.0000 </r>
       <r>   17.3337    0.0000 </r>
       <r>   19.8686    0.0000 </r>
       <r>   28.2277    0.0000 </r>
       <r>   30.1016    0.0000 </r>
       <r>   34.5157    0.0000 </r>
      </set>
      <set comment="kpoint 69">
       <r>    0.2446    1.0000 </r>
       <r>    0.5823    1.0000 </r>
       <r>    1.5039    1.0000 </r>
       <r>    3.2690    1.0000 </r>
       <r>    4.8745    1.0000 </r>
       <r>   10.6847   -0.0000 </r>
       <r>   11.7677   -0.0000 </r>
       <r>   17.0372    0.0000 </r>
       <r>   19.1762    0.0000 </r>
       <r>   27.8205    0.0000 </r>
       <r>   31.9665    0.0000 </r>
       <r>   35.6882    0.0000 </r>
      </set>
      <set comment="kpoint 70">
       <r>    0.4930    1.0000 </r>
       <r>    0.6369    1.0000 </r>
       <r>    1.0827    1.0000 </r>
       <r>    3.3627    1.0000 </r>
       <r>    4.5636    1.0000 </r>
       <r>    8.9357   -0.0000 </r>
       <r>   14.1248    0.0000 </r>
       <r>   16.3956    0.0000 </r>
       <r>   20.2569    0.0000 </r>
       <r>   28.1226    0.0000 </r>
       <r>   30.8391    0.0000 </r>
       <r>   36.0248    0.0000 </r>
      </set>
      <set comment="kpoint 71">
       <r>    0.0645    1.0000 </r>
       <r>    0.6104    1.0000 </r>
       <r>    1.1860    1.0000 </r>
       <r>    3.3909    1.0000 </r>
       <r>    4.1125    1.0000 </r>
       <r>    6.9460    0.7684 </r>
       <r>   15.7494    0.0000 </r>
       <r>   18.4477    0.0000 </r>
       <r>   21.7504    0.0000 </r>
       <r>   27.8966    0.0000 </r>
       <r>   29.7475    0.0000 </r>
       <r>   34.5830    0.0000 </r>
      </set>
      <set comment="kpoint 72">
       <r>   -0.6179    1.0000 </r>
       <r>   -0.0914    1.0000 </r>
       <r>    2.7492    1.0000 </r>
       <r>    3.7249    1.0000 </r>
       <r>    5.0509    1.0000 </r>
       <r>    6.7266    1.0304 </r>
       <r>   15.4402    0.0000 </r>
       <r>   19.0858    0.0000 </r>
       <r>   19.9606    0.0000 </r>
       <r>   25.6653    0.0000 </r>
       <r>   29.2952    0.0000 </r>
       <r>   36.1346    0.0000 </r>
      </set>
      <set comment="kpoint 73">
       <r>   -0.5174    1.0000 </r>
       <r>   -0.1823    1.0000 </r>
       <r>    2.7863    1.0000 </r>
       <r>    4.2177    1.0000 </r>
       <r>    5.0291    1.0000 </r>
       <r>    8.6084   -0.0000 </r>
       <r>   14.3039    0.0000 </r>
       <r>   17.0048    0.0000 </r>
       <r>   18.3009    0.0000 </r>
       <r>   27.5456    0.0000 </r>
       <r>   29.2579    0.0000 </r>
       <r>   35.2319    0.0000 </r>
      </set>
      <set comment="kpoint 74">
       <r>   -0.2231    1.0000 </r>
       <r>    0.1741    1.0000 </r>
       <r>    2.2564    1.0000 </r>
       <r>    3.7253    1.0000 </r>
       <r>    5.2559    1.0000 </r>
       <r>   11.1505   -0.0000 </r>
       <r>   12.7813    0.0000 </r>
       <r>   15.4587    0.0000 </r>
       <r>   17.5544    0.0000 </r>
       <r>   29.0120    0.0000 </r>
       <r>   30.9334    0.0000 </r>
       <r>   33.7274    0.0000 </r>
      </set>
      <set comment="kpoint 75">
       <r>    0.1707    1.0000 </r>
       <r>    0.7000    1.0000 </r>
       <r>    1.4564    1.0000 </r>
       <r>    3.3429    1.0000 </r>
       <r>    4.9891    1.0000 </r>
       <r>   10.9458   -0.0000 </r>
       <r>   12.9496    0.0000 </r>
       <r>   15.1590    0.0000 </r>
       <r>   18.7654    0.0000 </r>
       <r>   28.5111    0.0000 </r>
       <r>   32.0722    0.0000 </r>
       <r>   34.8763    0.0000 </r>
      </set>
      <set comment="kpoint 76">
       <r>    0.1258    1.0000 </r>
       <r>    0.6667    1.0000 </r>
       <r>    1.5858    1.0000 </r>
       <r>    3.0654    1.0000 </r>
       <r>    4.6996    1.0000 </r>
       <r>    9.2066   -0.0000 </r>
       <r>   12.2440   -0.0000 </r>
       <r>   18.4305    0.0000 </r>
       <r>   20.3784    0.0000 </r>
       <r>   26.9331    0.0000 </r>
       <r>   31.8498    0.0000 </r>
       <r>   36.4749    0.0000 </r>
      </set>
      <set comment="kpoint 77">
       <r>   -0.8166    1.0000 </r>
       <r>   -0.3863    1.0000 </r>
       <r>    3.7451    1.0000 </r>
       <r>    4.3879    1.0000 </r>
       <r>    5.1295    1.0000 </r>
       <r>    9.4989   -0.0000 </r>
       <r>   12.9612    0.0000 </r>
       <r>   16.1548    0.0000 </r>
       <r>   18.6510    0.0000 </r>
       <r>   26.2253    0.0000 </r>
       <r>   29.5032    0.0000 </r>
       <r>   36.5194    0.0000 </r>
      </set>
      <set comment="kpoint 78">
       <r>   -0.6171    1.0000 </r>
       <r>   -0.2686    1.0000 </r>
       <r>    3.1880    1.0000 </r>
       <r>    4.2124    1.0000 </r>
       <r>    5.2569    1.0000 </r>
       <r>    9.9851   -0.0000 </r>
       <r>   13.0198    0.0000 </r>
       <r>   16.2308    0.0000 </r>
       <r>   17.7035    0.0000 </r>
       <r>   27.7432    0.0000 </r>
       <r>   29.3737    0.0000 </r>
       <r>   35.3227    0.0000 </r>
      </set>
      <set comment="kpoint 79">
       <r>   -0.1089    1.0000 </r>
       <r>    0.2425    1.0000 </r>
       <r>    1.9268    1.0000 </r>
       <r>    3.7845    1.0000 </r>
       <r>    5.0029    1.0000 </r>
       <r>    9.5866   -0.0000 </r>
       <r>   13.8381    0.0000 </r>
       <r>   16.2831    0.0000 </r>
       <r>   18.3255    0.0000 </r>
       <r>   28.7079    0.0000 </r>
       <r>   30.5081    0.0000 </r>
       <r>   34.1652    0.0000 </r>
      </set>
      <set comment="kpoint 80">
       <r>   -0.7336    1.0000 </r>
       <r>   -0.2865    1.0000 </r>
       <r>    3.3669    1.0000 </r>
       <r>    4.1207    1.0000 </r>
       <r>    5.1351    1.0000 </r>
       <r>    8.1794   -0.0000 </r>
       <r>   14.1263    0.0000 </r>
       <r>   17.2347    0.0000 </r>
       <r>   19.1008    0.0000 </r>
       <r>   25.9990    0.0000 </r>
       <r>   29.4223    0.0000 </r>
       <r>   36.4612    0.0000 </r>
      </set>
      <set comment="kpoint 81">
       <r>   -0.3710    1.0000 </r>
       <r>   -0.0130    1.0000 </r>
       <r>    2.2245    1.0000 </r>
       <r>    4.0159    1.0000 </r>
       <r>    4.6758    1.0000 </r>
       <r>    7.2091   -0.0227 </r>
       <r>   15.6151    0.0000 </r>
       <r>   18.1967    0.0000 </r>
       <r>   19.6125    0.0000 </r>
       <r>   27.2953    0.0000 </r>
       <r>   29.0716    0.0000 </r>
       <r>   34.9144    0.0000 </r>
      </set>
      <set comment="kpoint 82">
       <r>   -0.5947    1.0000 </r>
       <r>    0.1727    1.0000 </r>
       <r>    2.1349    1.0000 </r>
       <r>    3.2927    1.0000 </r>
       <r>    4.8630    1.0000 </r>
       <r>    5.4535    1.0000 </r>
       <r>   16.7899    0.0000 </r>
       <r>   21.1640    0.0000 </r>
       <r>   21.2403    0.0000 </r>
       <r>   25.3796    0.0000 </r>
       <r>   29.2068    0.0000 </r>
       <r>   35.3724    0.0000 </r>
      </set>
      <set comment="kpoint 83">
       <r>   -2.1387    1.0000 </r>
       <r>    1.4701    1.0000 </r>
       <r>    1.9947    1.0000 </r>
       <r>    1.9947    1.0000 </r>
       <r>    3.6824    1.0000 </r>
       <r>    3.6824    1.0000 </r>
       <r>   18.9395    0.0000 </r>
       <r>   23.4414    0.0000 </r>
       <r>   28.3938    0.0000 </r>
       <r>   28.3938    0.0000 </r>
       <r>   30.1807    0.0000 </r>
       <r>   31.7423    0.0000 </r>
      </set>
      <set comment="kpoint 84">
       <r>   -1.4960    1.0000 </r>
       <r>    1.3307    1.0000 </r>
       <r>    1.9256    1.0000 </r>
       <r>    2.1571    1.0000 </r>
       <r>    3.3984    1.0000 </r>
       <r>    4.6339    1.0000 </r>
       <r>   17.7496    0.0000 </r>
       <r>   22.8467    0.0000 </r>
       <r>   25.3553    0.0000 </r>
       <r>   28.9235    0.0000 </r>
       <r>   30.0111    0.0000 </r>
       <r>   31.8910    0.0000 </r>
      </set>
      <set comment="kpoint 85">
       <r>   -0.4243    1.0000 </r>
       <r>    1.0110    1.0000 </r>
       <r>    1.5818    1.0000 </r>
       <r>    2.6088    1.0000 </r>
       <r>    3.2821    1.0000 </r>
       <r>    6.0343    1.0000 </r>
       <r>   16.7700    0.0000 </r>
       <r>   19.6435    0.0000 </r>
       <r>   24.5918    0.0000 </r>
       <r>   28.0377    0.0000 </r>
       <r>   29.1265    0.0000 </r>
       <r>   34.6132    0.0000 </r>
      </set>
      <set comment="kpoint 86">
       <r>    0.1017    1.0000 </r>
       <r>    1.1032    1.0000 </r>
       <r>    1.4158    1.0000 </r>
       <r>    2.7951    1.0000 </r>
       <r>    3.8193    1.0000 </r>
       <r>    7.5973   -0.0001 </r>
       <r>   14.8819    0.0000 </r>
       <r>   17.3427    0.0000 </r>
       <r>   24.3814    0.0000 </r>
       <r>   25.2971    0.0000 </r>
       <r>   31.2054    0.0000 </r>
       <r>   34.6863    0.0000 </r>
      </set>
      <set comment="kpoint 87">
       <r>   -0.1826    1.0000 </r>
       <r>    0.8818    1.0000 </r>
       <r>    1.9929    1.0000 </r>
       <r>    2.8784    1.0000 </r>
       <r>    4.6104    1.0000 </r>
       <r>    9.6579   -0.0000 </r>
       <r>   11.4039   -0.0000 </r>
       <r>   17.8881    0.0000 </r>
       <r>   22.8377    0.0000 </r>
       <r>   24.4847    0.0000 </r>
       <r>   33.8251    0.0000 </r>
       <r>   34.7195    0.0000 </r>
      </set>
      <set comment="kpoint 88">
       <r>   -0.4262    1.0000 </r>
       <r>    0.6139    1.0000 </r>
       <r>    2.0320    1.0000 </r>
       <r>    3.0665    1.0000 </r>
       <r>    5.0490    1.0000 </r>
       <r>    8.1342   -0.0000 </r>
       <r>   12.7755    0.0000 </r>
       <r>   19.3935    0.0000 </r>
       <r>   21.3616    0.0000 </r>
       <r>   24.9361    0.0000 </r>
       <r>   32.8402    0.0000 </r>
       <r>   34.9892    0.0000 </r>
      </set>
      <set comment="kpoint 89">
       <r>   -1.2964    1.0000 </r>
       <r>    1.5557    1.0000 </r>
       <r>    1.7417    1.0000 </r>
       <r>    2.1372    1.0000 </r>
       <r>    4.3009    1.0000 </r>
       <r>    4.4892    1.0000 </r>
       <r>   16.3476    0.0000 </r>
       <r>   23.0445    0.0000 </r>
       <r>   25.0461    0.0000 </r>
       <r>   26.9020    0.0000 </r>
       <r>   31.6879    0.0000 </r>
       <r>   32.7617    0.0000 </r>
      </set>
      <set comment="kpoint 90">
       <r>   -0.6214    1.0000 </r>
       <r>    1.3246    1.0000 </r>
       <r>    1.3920    1.0000 </r>
       <r>    2.5491    1.0000 </r>
       <r>    4.1508    1.0000 </r>
       <r>    5.9828    1.0000 </r>
       <r>   15.2726    0.0000 </r>
       <r>   21.2566    0.0000 </r>
       <r>   23.2356    0.0000 </r>
       <r>   26.7480    0.0000 </r>
       <r>   31.0197    0.0000 </r>
       <r>   34.1080    0.0000 </r>
      </set>
      <set comment="kpoint 91">
       <r>    0.3237    1.0000 </r>
       <r>    0.8746    1.0000 </r>
       <r>    1.0749    1.0000 </r>
       <r>    3.1301    1.0000 </r>
       <r>    4.0833    1.0000 </r>
       <r>    7.7409   -0.0000 </r>
       <r>   14.8696    0.0000 </r>
       <r>   17.3675    0.0000 </r>
       <r>   22.2362    0.0000 </r>
       <r>   27.2388    0.0000 </r>
       <r>   30.5757    0.0000 </r>
       <r>   35.8231    0.0000 </r>
      </set>
      <set comment="kpoint 92">
       <r>    0.2123    1.0000 </r>
       <r>    0.7705    1.0000 </r>
       <r>    1.4708    1.0000 </r>
       <r>    3.2469    1.0000 </r>
       <r>    4.5782    1.0000 </r>
       <r>    9.6546   -0.0000 </r>
       <r>   13.4851    0.0000 </r>
       <r>   15.6585    0.0000 </r>
       <r>   20.7226    0.0000 </r>
       <r>   26.9608    0.0000 </r>
       <r>   32.1756    0.0000 </r>
       <r>   36.5999    0.0000 </r>
      </set>
      <set comment="kpoint 93">
       <r>   -0.1743    1.0000 </r>
       <r>    0.4358    1.0000 </r>
       <r>    1.9545    1.0000 </r>
       <r>    3.5416    1.0000 </r>
       <r>    4.9365    1.0000 </r>
       <r>    9.9818   -0.0000 </r>
       <r>   12.3605   -0.0000 </r>
       <r>   17.0556    0.0000 </r>
       <r>   19.3901    0.0000 </r>
       <r>   27.0149    0.0000 </r>
       <r>   32.2854    0.0000 </r>
       <r>   34.3551    0.0000 </r>
      </set>
      <set comment="kpoint 94">
       <r>   -0.5679    1.0000 </r>
       <r>    0.9456    1.0000 </r>
       <r>    1.7511    1.0000 </r>
       <r>    2.6844    1.0000 </r>
       <r>    5.0006    1.0000 </r>
       <r>    6.5800    1.0045 </r>
       <r>   13.8678    0.0000 </r>
       <r>   21.4610    0.0000 </r>
       <r>   22.3047    0.0000 </r>
       <r>   24.6519    0.0000 </r>
       <r>   33.0205    0.0000 </r>
       <r>   34.3548    0.0000 </r>
      </set>
      <set comment="kpoint 95">
       <r>   -0.1614    1.0000 </r>
       <r>    0.6317    1.0000 </r>
       <r>    1.6518    1.0000 </r>
       <r>    3.2782    1.0000 </r>
       <r>    4.8233    1.0000 </r>
       <r>    8.3978   -0.0000 </r>
       <r>   13.1262    0.0000 </r>
       <r>   18.9353    0.0000 </r>
       <r>   20.1842    0.0000 </r>
       <r>   26.5574    0.0000 </r>
       <r>   31.9467    0.0000 </r>
       <r>   34.7246    0.0000 </r>
      </set>
      <set comment="kpoint 96">
       <r>    0.2430    1.0000 </r>
       <r>    0.7228    1.0000 </r>
       <r>    1.2520    1.0000 </r>
       <r>    3.4079    1.0000 </r>
       <r>    4.9906    1.0000 </r>
       <r>   10.3663   -0.0000 </r>
       <r>   13.5194    0.0000 </r>
       <r>   15.5132    0.0000 </r>
       <r>   18.4846    0.0000 </r>
       <r>   29.3026    0.0000 </r>
       <r>   31.0388    0.0000 </r>
       <r>   34.8836    0.0000 </r>
      </set>
      <set comment="kpoint 97">
       <r>    0.1000    1.0000 </r>
       <r>    0.7297    1.0000 </r>
       <r>    1.4329    1.0000 </r>
       <r>    3.3550    1.0000 </r>
       <r>    5.2557    1.0000 </r>
       <r>   11.7678   -0.0000 </r>
       <r>   13.1226    0.0000 </r>
       <r>   14.5675    0.0000 </r>
       <r>   17.4617    0.0000 </r>
       <r>   30.1605    0.0000 </r>
       <r>   31.6758    0.0000 </r>
       <r>   33.3886    0.0000 </r>
      </set>
      <set comment="kpoint 98">
       <r>   -0.4125    1.0000 </r>
       <r>    0.3934    1.0000 </r>
       <r>    2.3647    1.0000 </r>
       <r>    3.4662    1.0000 </r>
       <r>    4.9587    1.0000 </r>
       <r>    9.8282   -0.0000 </r>
       <r>   11.9365   -0.0000 </r>
       <r>   17.2273    0.0000 </r>
       <r>   20.7376    0.0000 </r>
       <r>   25.3832    0.0000 </r>
       <r>   32.7159    0.0000 </r>
       <r>   35.3905    0.0000 </r>
      </set>
      <set comment="kpoint 99">
       <r>   -0.2255    1.0000 </r>
       <r>    0.3548    1.0000 </r>
       <r>    2.1900    1.0000 </r>
       <r>    3.6393    1.0000 </r>
       <r>    5.0013    1.0000 </r>
       <r>   11.3102   -0.0000 </r>
       <r>   12.1031   -0.0000 </r>
       <r>   15.3272    0.0000 </r>
       <r>   19.0623    0.0000 </r>
       <r>   27.3505    0.0000 </r>
       <r>   32.6803    0.0000 </r>
       <r>   33.8651    0.0000 </r>
      </set>
      <set comment="kpoint 100">
       <r>   -0.4380    1.0000 </r>
       <r>    0.2906    1.0000 </r>
       <r>    2.5905    1.0000 </r>
       <r>    3.7709    1.0000 </r>
       <r>    4.8080    1.0000 </r>
       <r>   11.1109   -0.0000 </r>
       <r>   11.7349   -0.0000 </r>
       <r>   15.4229    0.0000 </r>
       <r>   20.4285    0.0000 </r>
       <r>   25.6926    0.0000 </r>
       <r>   32.6828    0.0000 </r>
       <r>   35.5586    0.0000 </r>
      </set>
      <set comment="kpoint 101">
       <r>   -1.4718    1.0000 </r>
       <r>    1.8068    1.0000 </r>
       <r>    1.8068    1.0000 </r>
       <r>    2.7217    1.0000 </r>
       <r>    4.3383    1.0000 </r>
       <r>    4.3383    1.0000 </r>
       <r>   14.8439    0.0000 </r>
       <r>   22.4059    0.0000 </r>
       <r>   26.9769    0.0000 </r>
       <r>   26.9769    0.0000 </r>
       <r>   32.1639    0.0000 </r>
       <r>   32.2785    0.0000 </r>
      </set>
      <set comment="kpoint 102">
       <r>   -1.1007    1.0000 </r>
       <r>    1.5825    1.0000 </r>
       <r>    1.9323    1.0000 </r>
       <r>    2.6513    1.0000 </r>
       <r>    4.2022    1.0000 </r>
       <r>    5.7223    1.0000 </r>
       <r>   13.6810    0.0000 </r>
       <r>   22.1273    0.0000 </r>
       <r>   24.0461    0.0000 </r>
       <r>   26.9705    0.0000 </r>
       <r>   31.5246    0.0000 </r>
       <r>   33.3278    0.0000 </r>
      </set>
      <set comment="kpoint 103">
       <r>   -0.3187    1.0000 </r>
       <r>    1.1283    1.0000 </r>
       <r>    2.0437    1.0000 </r>
       <r>    2.4643    1.0000 </r>
       <r>    4.1740    1.0000 </r>
       <r>    7.6224   -0.0001 </r>
       <r>   13.0975    0.0000 </r>
       <r>   19.2861    0.0000 </r>
       <r>   23.9008    0.0000 </r>
       <r>   25.1968    0.0000 </r>
       <r>   31.8735    0.0000 </r>
       <r>   34.3943    0.0000 </r>
      </set>
      <set comment="kpoint 104">
       <r>   -0.0395    1.0000 </r>
       <r>    0.9067    1.0000 </r>
       <r>    1.7687    1.0000 </r>
       <r>    3.1954    1.0000 </r>
       <r>    4.3521    1.0000 </r>
       <r>    9.3706   -0.0000 </r>
       <r>   13.4279    0.0000 </r>
       <r>   15.6743    0.0000 </r>
       <r>   22.7081    0.0000 </r>
       <r>   24.8745    0.0000 </r>
       <r>   33.5667    0.0000 </r>
       <r>   34.9239    0.0000 </r>
      </set>
      <set comment="kpoint 105">
       <r>   -1.1088    1.0000 </r>
       <r>    1.4740    1.0000 </r>
       <r>    1.9348    1.0000 </r>
       <r>    2.8995    1.0000 </r>
       <r>    4.9278    1.0000 </r>
       <r>    5.9631    1.0000 </r>
       <r>   12.3807   -0.0000 </r>
       <r>   22.1161    0.0000 </r>
       <r>   24.4867    0.0000 </r>
       <r>   25.0738    0.0000 </r>
       <r>   33.3092    0.0000 </r>
       <r>   33.7756    0.0000 </r>
      </set>
      <set comment="kpoint 106">
       <r>   -0.5911    1.0000 </r>
       <r>    1.1083    1.0000 </r>
       <r>    2.2578    1.0000 </r>
       <r>    2.4737    1.0000 </r>
       <r>    4.7453    1.0000 </r>
       <r>    7.9359   -0.0000 </r>
       <r>   11.5319   -0.0000 </r>
       <r>   21.2937    0.0000 </r>
       <r>   22.0497    0.0000 </r>
       <r>   25.3506    0.0000 </r>
       <r>   32.6637    0.0000 </r>
       <r>   34.9506    0.0000 </r>
      </set>
      <set comment="kpoint 107">
       <r>    0.0699    1.0000 </r>
       <r>    0.7005    1.0000 </r>
       <r>    1.7588    1.0000 </r>
       <r>    3.0108    1.0000 </r>
       <r>    4.6932    1.0000 </r>
       <r>    9.9926   -0.0000 </r>
       <r>   11.4606   -0.0000 </r>
       <r>   17.8661    0.0000 </r>
       <r>   20.8261    0.0000 </r>
       <r>   26.3983    0.0000 </r>
       <r>   32.4460    0.0000 </r>
       <r>   36.4793    0.0000 </r>
      </set>
      <set comment="kpoint 108">
       <r>   -0.4703    1.0000 </r>
       <r>    1.0008    1.0000 </r>
       <r>    2.2861    1.0000 </r>
       <r>    2.5014    1.0000 </r>
       <r>    4.8632    1.0000 </r>
       <r>    9.1856   -0.0000 </r>
       <r>   10.5622   -0.0000 </r>
       <r>   20.0367    0.0000 </r>
       <r>   23.1379    0.0000 </r>
       <r>   23.9690    0.0000 </r>
       <r>   34.1325    0.0000 </r>
       <r>   34.3520    0.0000 </r>
      </set>
      <set comment="kpoint 109">
       <r>   -1.3913    1.0000 </r>
       <r>    1.6381    1.0000 </r>
       <r>    1.6381    1.0000 </r>
       <r>    4.8626    1.0000 </r>
       <r>    4.8626    1.0000 </r>
       <r>    4.9229    1.0000 </r>
       <r>   11.3087   -0.0000 </r>
       <r>   21.6554    0.0000 </r>
       <r>   25.5976    0.0000 </r>
       <r>   25.5976    0.0000 </r>
       <r>   33.2241    0.0000 </r>
       <r>   33.2241    0.0000 </r>
      </set>
      <set comment="kpoint 110">
       <r>   -1.1044    1.0000 </r>
       <r>    1.4251    1.0000 </r>
       <r>    1.8427    1.0000 </r>
       <r>    3.5390    1.0000 </r>
       <r>    4.8358    1.0000 </r>
       <r>    7.1183    0.1170 </r>
       <r>   10.6613   -0.0000 </r>
       <r>   21.8025    0.0000 </r>
       <r>   23.9154    0.0000 </r>
       <r>   25.0326    0.0000 </r>
       <r>   33.4413    0.0000 </r>
       <r>   33.6899    0.0000 </r>
      </set>
     </set>
    </set>
   </array>
  </eigenvalues>
  <separator name="orbital magnetization" >
   <v name="MAGDIPOLOUT">      0.00000000      0.00000000      0.00000000</v>
  </separator>
  <dos>
   <i name="efermi">      7.01349554 </i>
   <total>
    <array>
     <dimension dim="1">gridpoints</dimension>
     <dimension dim="2">spin</dimension>
     <field>energy</field>
     <field>total</field>
     <field>integrated</field>
     <set>
      <set comment="spin 1">
       <r>    -6.0833     0.0000     0.0000 </r>
       <r>    -5.9301     0.0000     0.0000 </r>
       <r>    -5.7769     0.0000     0.0000 </r>
       <r>    -5.6238    -0.0000    -0.0000 </r>
       <r>    -5.4706    -0.0000    -0.0000 </r>
       <r>    -5.3174    -0.0000    -0.0000 </r>
       <r>    -5.1642    -0.0000    -0.0000 </r>
       <r>    -5.0111    -0.0000    -0.0000 </r>
       <r>    -4.8579    -0.0000    -0.0000 </r>
       <r>    -4.7047    -0.0000    -0.0000 </r>
       <r>    -4.5515    -0.0000    -0.0000 </r>
       <r>    -4.3984    -0.0002    -0.0000 </r>
       <r>    -4.2452    -0.0008    -0.0002 </r>
       <r>    -4.0920     0.0033     0.0004 </r>
       <r>    -3.9388     0.0145     0.0026 </r>
       <r>    -3.7857     0.0325     0.0075 </r>
       <r>    -3.6325     0.0498     0.0152 </r>
       <r>    -3.4793     0.0492     0.0227 </r>
       <r>    -3.3261     0.0536     0.0309 </r>
       <r>    -3.1730     0.0706     0.0417 </r>
       <r>    -3.0198     0.0975     0.0567 </r>
       <r>    -2.8666     0.0924     0.0708 </r>
       <r>    -2.7134     0.0576     0.0796 </r>
       <r>    -2.5603     0.0942     0.0941 </r>
       <r>    -2.4071     0.1587     0.1184 </r>
       <r>    -2.2539     0.1460     0.1407 </r>
       <r>    -2.1007     0.0932     0.1550 </r>
       <r>    -1.9476     0.1520     0.1783 </r>
       <r>    -1.7944     0.1966     0.2084 </r>
       <r>    -1.6412     0.1708     0.2346 </r>
       <r>    -1.4880     0.2586     0.2742 </r>
       <r>    -1.3349     0.4370     0.3411 </r>
       <r>    -1.1817     0.5955     0.4323 </r>
       <r>    -1.0285     0.6326     0.5292 </r>
       <r>    -0.8753     0.9366     0.6727 </r>
       <r>    -0.7222     1.1790     0.8533 </r>
       <r>    -0.5690     1.4664     1.0779 </r>
       <r>    -0.4158     1.6138     1.3251 </r>
       <r>    -0.2626     1.5985     1.5700 </r>
       <r>    -0.1095     1.6191     1.8180 </r>
       <r>     0.0437     1.3195     2.0201 </r>
       <r>     0.1969     1.4071     2.2356 </r>
       <r>     0.3501     1.2707     2.4302 </r>
       <r>     0.5032     0.9123     2.5700 </r>
       <r>     0.6564     1.2562     2.7624 </r>
       <r>     0.8096     1.5395     2.9982 </r>
       <r>     0.9627     1.6000     3.2433 </r>
       <r>     1.1159     1.5829     3.4858 </r>
       <r>     1.2691     1.4950     3.7148 </r>
       <r>     1.4223     1.8345     3.9958 </r>
       <r>     1.5754     1.8891     4.2851 </r>
       <r>     1.7286     1.8386     4.5667 </r>
       <r>     1.8818     2.1226     4.8919 </r>
       <r>     2.0350     2.7969     5.3203 </r>
       <r>     2.1881     2.5770     5.7150 </r>
       <r>     2.3413     1.7214     5.9787 </r>
       <r>     2.4945     1.3471     6.1850 </r>
       <r>     2.6477     1.2498     6.3765 </r>
       <r>     2.8008     1.4066     6.5919 </r>
       <r>     2.9540     1.3524     6.7991 </r>
       <r>     3.1072     1.6815     7.0566 </r>
       <r>     3.2604     1.8531     7.3405 </r>
       <r>     3.4135     1.6658     7.5957 </r>
       <r>     3.5667     1.3732     7.8060 </r>
       <r>     3.7199     1.7322     8.0713 </r>
       <r>     3.8731     1.5648     8.3110 </r>
       <r>     4.0262     0.9422     8.4553 </r>
       <r>     4.1794     1.3787     8.6665 </r>
       <r>     4.3326     1.5525     8.9043 </r>
       <r>     4.4858     1.2220     9.0915 </r>
       <r>     4.6389     1.7180     9.3547 </r>
       <r>     4.7921     2.1743     9.6877 </r>
       <r>     4.9453     2.1470    10.0166 </r>
       <r>     5.0985     1.7912    10.2909 </r>
       <r>     5.2516     1.2466    10.4819 </r>
       <r>     5.4048     0.8347    10.6097 </r>
       <r>     5.5580     0.1784    10.6371 </r>
       <r>     5.7112    -0.0058    10.6362 </r>
       <r>     5.8643     0.1362    10.6570 </r>
       <r>     6.0175     0.4113    10.7200 </r>
       <r>     6.1707     0.4862    10.7945 </r>
       <r>     6.3239     0.2740    10.8365 </r>
       <r>     6.4770     0.1302    10.8564 </r>
       <r>     6.6302     0.2122    10.8889 </r>
       <r>     6.7834     0.3249    10.9387 </r>
       <r>     6.9366     0.2792    10.9815 </r>
       <r>     7.0897     0.2467    11.0193 </r>
       <r>     7.2429     0.2473    11.0572 </r>
       <r>     7.3961     0.1437    11.0792 </r>
       <r>     7.5493     0.2698    11.1205 </r>
       <r>     7.7024     0.4177    11.1845 </r>
       <r>     7.8556     0.3813    11.2429 </r>
       <r>     8.0088     0.2410    11.2798 </r>
       <r>     8.1620     0.1853    11.3082 </r>
       <r>     8.3151     0.1465    11.3306 </r>
       <r>     8.4683     0.1482    11.3533 </r>
       <r>     8.6215     0.2912    11.3979 </r>
       <r>     8.7747     0.3956    11.4585 </r>
       <r>     8.9278     0.2979    11.5041 </r>
       <r>     9.0810     0.2033    11.5353 </r>
       <r>     9.2342     0.2034    11.5664 </r>
       <r>     9.3874     0.1428    11.5883 </r>
       <r>     9.5405     0.2320    11.6239 </r>
       <r>     9.6937     0.3138    11.6719 </r>
       <r>     9.8469     0.1848    11.7002 </r>
       <r>    10.0001     0.2626    11.7405 </r>
       <r>    10.1532     0.1938    11.7701 </r>
       <r>    10.3064     0.0701    11.7809 </r>
       <r>    10.4596     0.2170    11.8141 </r>
       <r>    10.6128     0.4873    11.8888 </r>
       <r>    10.7659     0.5813    11.9778 </r>
       <r>    10.9191     0.2971    12.0233 </r>
       <r>    11.0723     0.1931    12.0529 </r>
       <r>    11.2255     0.2145    12.0857 </r>
       <r>    11.3786     0.3512    12.1395 </r>
       <r>    11.5318     0.4066    12.2018 </r>
       <r>    11.6850     0.3369    12.2534 </r>
       <r>    11.8382     0.2672    12.2943 </r>
       <r>    11.9913     0.1322    12.3146 </r>
       <r>    12.1445     0.1669    12.3402 </r>
       <r>    12.2977     0.3789    12.3982 </r>
       <r>    12.4509     0.3883    12.4577 </r>
       <r>    12.6040     0.3090    12.5050 </r>
       <r>    12.7572     0.2554    12.5441 </r>
       <r>    12.9104     0.2256    12.5787 </r>
       <r>    13.0636     0.4329    12.6450 </r>
       <r>    13.2167     0.4719    12.7173 </r>
       <r>    13.3699     0.2159    12.7503 </r>
       <r>    13.5231     0.3108    12.7979 </r>
       <r>    13.6763     0.3242    12.8476 </r>
       <r>    13.8294     0.2638    12.8880 </r>
       <r>    13.9826     0.1953    12.9179 </r>
       <r>    14.1358     0.4088    12.9805 </r>
       <r>    14.2889     0.4736    13.0531 </r>
       <r>    14.4421     0.1454    13.0753 </r>
       <r>    14.5953     0.0675    13.0857 </r>
       <r>    14.7485     0.1495    13.1086 </r>
       <r>    14.9016     0.3362    13.1601 </r>
       <r>    15.0548     0.3193    13.2090 </r>
       <r>    15.2080     0.2557    13.2482 </r>
       <r>    15.3612     0.4998    13.3247 </r>
       <r>    15.5143     0.5877    13.4147 </r>
       <r>    15.6675     0.5191    13.4942 </r>
       <r>    15.8207     0.4135    13.5576 </r>
       <r>    15.9739     0.0760    13.5692 </r>
       <r>    16.1270     0.0385    13.5751 </r>
       <r>    16.2802     0.3109    13.6228 </r>
       <r>    16.4334     0.4333    13.6891 </r>
       <r>    16.5866     0.2986    13.7349 </r>
       <r>    16.7397     0.3165    13.7834 </r>
       <r>    16.8929     0.4237    13.8483 </r>
       <r>    17.0461     0.4249    13.9133 </r>
       <r>    17.1993     0.3715    13.9702 </r>
       <r>    17.3524     0.4043    14.0322 </r>
       <r>    17.5056     0.5248    14.1126 </r>
       <r>    17.6588     0.4819    14.1864 </r>
       <r>    17.8120     0.4713    14.2586 </r>
       <r>    17.9651     0.4372    14.3255 </r>
       <r>    18.1183     0.3118    14.3733 </r>
       <r>    18.2715     0.4970    14.4494 </r>
       <r>    18.4247     0.6497    14.5490 </r>
       <r>    18.5778     0.5047    14.6263 </r>
       <r>    18.7310     0.2299    14.6615 </r>
       <r>    18.8842     0.2177    14.6948 </r>
       <r>    19.0374     0.4359    14.7616 </r>
       <r>    19.1905     0.6997    14.8688 </r>
       <r>    19.3437     0.6317    14.9655 </r>
       <r>    19.4969     0.6400    15.0635 </r>
       <r>    19.6501     0.5949    15.1547 </r>
       <r>    19.8032     0.3565    15.2093 </r>
       <r>    19.9564     0.1802    15.2369 </r>
       <r>    20.1096     0.2929    15.2817 </r>
       <r>    20.2628     0.5997    15.3736 </r>
       <r>    20.4159     0.6044    15.4662 </r>
       <r>    20.5691     0.3661    15.5223 </r>
       <r>    20.7223     0.3459    15.5752 </r>
       <r>    20.8755     0.5025    15.6522 </r>
       <r>    21.0286     0.4882    15.7270 </r>
       <r>    21.1818     0.5688    15.8141 </r>
       <r>    21.3350     0.5674    15.9010 </r>
       <r>    21.4882     0.4387    15.9682 </r>
       <r>    21.6413     0.6083    16.0614 </r>
       <r>    21.7945     0.8036    16.1845 </r>
       <r>    21.9477     0.6786    16.2885 </r>
       <r>    22.1009     0.5956    16.3797 </r>
       <r>    22.2540     0.6653    16.4816 </r>
       <r>    22.4072     0.4133    16.5449 </r>
       <r>    22.5604     0.2143    16.5777 </r>
       <r>    22.7136     0.4452    16.6459 </r>
       <r>    22.8667     0.7131    16.7551 </r>
       <r>    23.0199     0.5186    16.8346 </r>
       <r>    23.1731     0.6056    16.9273 </r>
       <r>    23.3263     0.8546    17.0582 </r>
       <r>    23.4794     0.8219    17.1841 </r>
       <r>    23.6326     0.6208    17.2792 </r>
       <r>    23.7858     0.2993    17.3251 </r>
       <r>    23.9390     0.3680    17.3814 </r>
       <r>    24.0921     0.4237    17.4463 </r>
       <r>    24.2453     0.3106    17.4939 </r>
       <r>    24.3985     0.2978    17.5395 </r>
       <r>    24.5517     0.2978    17.5852 </r>
       <r>    24.7048     0.3187    17.6340 </r>
       <r>    24.8580     0.5541    17.7188 </r>
       <r>    25.0112     0.7937    17.8404 </r>
       <r>    25.1644     0.7677    17.9580 </r>
       <r>    25.3175     0.6698    18.0606 </r>
       <r>    25.4707     0.6399    18.1586 </r>
       <r>    25.6239     0.6151    18.2528 </r>
       <r>    25.7771     0.7395    18.3661 </r>
       <r>    25.9302     0.7110    18.4750 </r>
       <r>    26.0834     0.8414    18.6039 </r>
       <r>    26.2366     0.9586    18.7507 </r>
       <r>    26.3898     0.8279    18.8776 </r>
       <r>    26.5429     0.5984    18.9692 </r>
       <r>    26.6961     0.3818    19.0277 </r>
       <r>    26.8493     0.3916    19.0877 </r>
       <r>    27.0025     0.8383    19.2161 </r>
       <r>    27.1556     0.9243    19.3577 </r>
       <r>    27.3088     0.6090    19.4509 </r>
       <r>    27.4620     0.3658    19.5070 </r>
       <r>    27.6151     0.4232    19.5718 </r>
       <r>    27.7683     0.4796    19.6453 </r>
       <r>    27.9215     0.5167    19.7244 </r>
       <r>    28.0747     0.6932    19.8306 </r>
       <r>    28.2278     0.4987    19.9070 </r>
       <r>    28.3810     0.3574    19.9617 </r>
       <r>    28.5342     0.3855    20.0208 </r>
       <r>    28.6874     0.3406    20.0730 </r>
       <r>    28.8405     0.2747    20.1150 </r>
       <r>    28.9937     0.2960    20.1604 </r>
       <r>    29.1469     0.3522    20.2143 </r>
       <r>    29.3001     0.5362    20.2965 </r>
       <r>    29.4532     0.5715    20.3840 </r>
       <r>    29.6064     0.3098    20.4314 </r>
       <r>    29.7596     0.2356    20.4675 </r>
       <r>    29.9128     0.1698    20.4935 </r>
       <r>    30.0659     0.2631    20.5338 </r>
       <r>    30.2191     0.4944    20.6096 </r>
       <r>    30.3723     0.4524    20.6789 </r>
       <r>    30.5255     0.4039    20.7407 </r>
       <r>    30.6786     0.3534    20.7948 </r>
       <r>    30.8318     0.4798    20.8683 </r>
       <r>    30.9850     0.9441    21.0130 </r>
       <r>    31.1382     0.6772    21.1167 </r>
       <r>    31.2913     0.1228    21.1355 </r>
       <r>    31.4445     0.0490    21.1430 </r>
       <r>    31.5977     0.3360    21.1945 </r>
       <r>    31.7509     0.5082    21.2723 </r>
       <r>    31.9040     0.5160    21.3513 </r>
       <r>    32.0572     0.5579    21.4368 </r>
       <r>    32.2104     0.5589    21.5224 </r>
       <r>    32.3636     0.5236    21.6026 </r>
       <r>    32.5167     0.4554    21.6724 </r>
       <r>    32.6699     0.6887    21.7779 </r>
       <r>    32.8231     0.8580    21.9093 </r>
       <r>    32.9763     0.5492    21.9934 </r>
       <r>    33.1294     0.4627    22.0643 </r>
       <r>    33.2826     0.5763    22.1525 </r>
       <r>    33.4358     0.6639    22.2542 </r>
       <r>    33.5890     0.6923    22.3603 </r>
       <r>    33.7421     0.7542    22.4758 </r>
       <r>    33.8953     0.7736    22.5943 </r>
       <r>    34.0485     0.5752    22.6824 </r>
       <r>    34.2017     0.5303    22.7637 </r>
       <r>    34.3548     0.8147    22.8884 </r>
       <r>    34.5080     0.7446    23.0025 </r>
       <r>    34.6612     0.5729    23.0903 </r>
       <r>    34.8144     0.6436    23.1888 </r>
       <r>    34.9675     0.8584    23.3203 </r>
       <r>    35.1207     0.6807    23.4246 </r>
       <r>    35.2739     0.4458    23.4929 </r>
       <r>    35.4271     0.6772    23.5966 </r>
       <r>    35.5802     0.4666    23.6681 </r>
       <r>    35.7334     0.1923    23.6975 </r>
       <r>    35.8866     0.2345    23.7334 </r>
       <r>    36.0398     0.1986    23.7639 </r>
       <r>    36.1929     0.1004    23.7792 </r>
       <r>    36.3461     0.1180    23.7973 </r>
       <r>    36.4993     0.3404    23.8495 </r>
       <r>    36.6525     0.4018    23.9110 </r>
       <r>    36.8056     0.2889    23.9553 </r>
       <r>    36.9588     0.0736    23.9665 </r>
       <r>    37.1120    -0.0148    23.9643 </r>
       <r>    37.2652    -0.0005    23.9642 </r>
       <r>    37.4183     0.0354    23.9696 </r>
       <r>    37.5715     0.0532    23.9778 </r>
       <r>    37.7247     0.0736    23.9891 </r>
       <r>    37.8779     0.0635    23.9988 </r>
       <r>    38.0310     0.0115    24.0006 </r>
       <r>    38.1842    -0.0030    24.0001 </r>
       <r>    38.3374    -0.0006    24.0000 </r>
       <r>    38.4906    -0.0000    24.0000 </r>
       <r>    38.6437    -0.0000    24.0000 </r>
       <r>    38.7969    -0.0000    24.0000 </r>
       <r>    38.9501    -0.0000    24.0000 </r>
       <r>    39.1033    -0.0000    24.0000 </r>
       <r>    39.2564     0.0000    24.0000 </r>
       <r>    39.4096     0.0000    24.0000 </r>
       <r>    39.5628     0.0000    24.0000 </r>
       <r>    39.7160     0.0000    24.0000 </r>
       <r>    39.8691     0.0000    24.0000 </r>
      </set>
     </set>
    </array>
   </total>
  </dos>
 </calculation>
 <structure name="finalpos" >
  <crystal>
   <varray name="basis" >
    <v>       0.00000000       1.97500000       1.97500000 </v>
    <v>       1.97500000       0.00000000       1.97500000 </v>
    <v>       1.97500000       1.97500000       0.00000000 </v>
   </varray>
   <i name="volume">     15.40746875 </i>
   <varray name="rec_basis" >
    <v>      -0.25316456       0.25316456       0.25316456 </v>
    <v>       0.25316456      -0.25316456       0.25316456 </v>
    <v>       0.25316456       0.25316456      -0.25316456 </v>
   </varray>
  </crystal>
  <varray name="positions" >
   <v>       0.00000000       0.00000000       0.00000000 </v>
  </varray>
 </structure>
</modeling>
