fcc Ni                                  
   3.40000000000000     
     0.000000    0.500000    0.500000
     0.500000    0.000000    0.500000
     0.500000    0.500000    0.000000
   Ni
     1
Direct
  0.000000  0.000000  0.000000
 
   20   20   20
  135.65      127.57      105.94      77.219      48.883      26.560      12.628      6.2483      4.4004      3.7754    
  3.5627      3.7754      4.4004      6.2483      12.628      26.560      48.883      77.219      105.94      127.57    
  127.57      112.75      87.723      59.585      34.903      17.596      8.2895      4.8994      3.9959      3.5802    
  3.5805      3.9963      4.8997      8.2910      17.600      34.905      59.580      87.708      112.73      127.56    
  105.94      87.723      63.604      39.952      21.576      10.421      5.5714      4.2066      3.6284      3.4349    
  3.6286      4.2064      5.5717      10.424      21.581      39.953      63.595      87.706      105.92      112.73    
  77.219      59.585      39.952      23.099      11.787      6.1922      4.3756      3.6917      3.3460      3.3461    
  3.6915      4.3746      6.1917      11.789      23.102      39.954      59.584      77.215      87.706      87.708    
  48.883      34.903      21.576      11.787      6.4468      4.4823      3.7458      3.3038      3.1625      3.3041    
  3.7457      4.4809      6.4442      11.785      21.576      34.906      48.888      59.584      63.595      59.580    
  26.560      17.596      10.421      6.1922      4.4823      3.7673      3.2900      3.0647      3.0650      3.2909    
  3.7686      4.4825      6.1895      10.416      17.591      26.558      34.906      39.954      39.953      34.905    
  12.628      8.2895      5.5714      4.3756      3.7458      3.2900      3.0349      2.9555      3.0348      3.2914    
  3.7493      4.3791      5.5716      8.2847      12.620      17.591      21.576      23.102      21.581      17.600    
  6.2483      4.8994      4.2066      3.6917      3.3038      3.0647      2.9555      2.9547      3.0633      3.3039    
  3.6952      4.2128      4.9046      6.2481      8.2847      10.416      11.785      11.789      10.424      8.2910    
  4.4004      3.9959      3.6284      3.3460      3.1625      3.0650      3.0348      3.0633      3.1590      3.3425    
  3.6284      4.0012      4.4081      4.9046      5.5716      6.1895      6.4442      6.1917      5.5717      4.8997    
  3.7754      3.5802      3.4349      3.3461      3.3041      3.2909      3.2914      3.3039      3.3425      3.4285    
  3.5752      3.7755      4.0012      4.2128      4.3791      4.4825      4.4809      4.3746      4.2064      3.9963    
  3.5627      3.5805      3.6286      3.6915      3.7457      3.7686      3.7493      3.6952      3.6284      3.5752    
  3.5550      3.5752      3.6284      3.6952      3.7493      3.7686      3.7457      3.6915      3.6286      3.5805    
  3.7754      3.9963      4.2064      4.3746      4.4809      4.4825      4.3791      4.2128      4.0012      3.7755    
  3.5752      3.4285      3.3425      3.3039      3.2914      3.2909      3.3041      3.3461      3.4349      3.5802    
  4.4004      4.8997      5.5717      6.1917      6.4442      6.1895      5.5716      4.9046      4.4081      4.0012    
  3.6284      3.3425      3.1590      3.0633      3.0348      3.0650      3.1625      3.3460      3.6284      3.9959    
  6.2483      8.2910      10.424      11.789      11.785      10.416      8.2847      6.2481      4.9046      4.2128    
  3.6952      3.3039      3.0633      2.9547      2.9555      3.0647      3.3038      3.6917      4.2066      4.8994    
  12.628      17.600      21.581      23.102      21.576      17.591      12.620      8.2847      5.5716      4.3791    
  3.7493      3.2914      3.0348      2.9555      3.0349      3.2900      3.7458      4.3756      5.5714      8.2895    
  26.560      34.905      39.953      39.954      34.906      26.558      17.591      10.416      6.1895      4.4825    
  3.7686      3.2909      3.0650      3.0647      3.2900      3.7673      4.4823      6.1922      10.421      17.596    
  48.883      59.580      63.595      59.584      48.888      34.906      21.576      11.785      6.4442      4.4809    
  3.7457      3.3041      3.1625      3.3038      3.7458      4.4823      6.4468      11.787      21.576      34.903    
  77.219      87.708      87.706      77.215      59.584      39.954      23.102      11.789      6.1917      4.3746    
  3.6915      3.3461      3.3460      3.6917      4.3756      6.1922      11.787      23.099      39.952      59.585    
  105.94      112.73      105.92      87.706      63.595      39.953      21.581      10.424      5.5717      4.2064    
  3.6286      3.4349      3.6284      4.2066      5.5714      10.421      21.576      39.952      63.604      87.723    
  127.57      127.56      112.73      87.708      59.580      34.905      17.600      8.2910      4.8997      3.9963    
  3.5805      3.5802      3.9959      4.8994      8.2895      17.596      34.903      59.585      87.723      112.75    
  127.57      112.75      87.723      59.585      34.903      17.596      8.2895      4.8994      3.9959      3.5802    
  3.5805      3.9963      4.8997      8.2910      17.600      34.905      59.580      87.708      112.73      127.56    
  112.75      93.325      67.659      42.531      22.989      11.046      5.7675      4.2739      3.6837      3.4848    
  3.6839      4.2737      5.7682      11.051      22.996      42.531      67.644      93.299      112.73      120.00    
  87.723      67.659      45.388      26.265      13.309      6.7319      4.5240      3.7988      3.4335      3.4336    
  3.7983      4.5230      6.7328      13.314      26.271      45.387      67.647      87.707      99.687      99.694    
  59.585      42.531      26.265      14.183      7.3736      4.7386      3.8989      3.4185      3.2630      3.4189    
  3.8981      4.7365      7.3723      14.185      26.269      42.535      59.588      72.678      77.603      72.678    
  34.903      22.989      13.309      7.3736      4.8279      3.9581      3.4227      3.1651      3.1655      3.4235    
  3.9577      4.8254      7.3699      13.307      22.991      34.909      45.972      52.670      52.667      45.965    
  17.596      11.046      6.7319      4.7386      3.9581      3.4272      3.1231      3.0284      3.1235      3.4287    
  3.9600      4.7386      6.7285      11.041      17.592      24.933      30.766      32.992      30.765      24.933    
  8.2895      5.7675      4.5240      3.8989      3.4227      3.1231      2.9862      2.9858      3.1230      3.4249    
  3.9033      4.5280      5.7676      8.2849      11.879      15.504      17.792      17.795      15.510      11.886    
  4.8994      4.2739      3.7988      3.4185      3.1651      3.0284      2.9858      3.0268      3.1632      3.4187    
  3.8027      4.2805      4.9047      6.0045      7.4803      8.7859      9.3107      8.7906      7.4850      6.0044    
  3.9959      3.6837      3.4335      3.2630      3.1655      3.1235      3.1230      3.1632      3.2585      3.4294    
  3.6839      4.0013      4.3331      4.6849      5.0803      5.3612      5.3615      5.0795      4.6803      4.3259    
  3.5802      3.4848      3.4336      3.4189      3.4235      3.4287      3.4249      3.4187      3.4294      3.4782    
  3.5753      3.7140      3.8717      4.0169      4.1185      4.1539      4.1151      4.0116      3.8675      3.7141    
  3.5805      3.6839      3.7983      3.8981      3.9577      3.9600      3.9033      3.8027      3.6839      3.5753    
  3.4996      3.4671      3.4725      3.4967      3.5158      3.5142      3.4940      3.4726      3.4719      3.5068    
  3.9963      4.2737      4.5230      4.7365      4.8254      4.7386      4.5280      4.2805      4.0013      3.7140    
  3.4671      3.2902      3.1852      3.1350      3.1206      3.1353      3.1877      3.2952      3.4716      3.7141    
  4.8997      5.7682      6.7328      7.3723      7.3699      6.7285      5.7676      4.9047      4.3331      3.8717    
  3.4725      3.1852      3.0135      2.9369      2.9378      3.0159      3.1877      3.4725      3.8672      4.3259    
  8.2910      11.051      13.314      14.185      13.307      11.041      8.2849      6.0045      4.6849      4.0169    
  3.4967      3.1350      2.9369      2.8762      2.9378      3.1351      3.4943      4.0120      4.6804      6.0044    
  17.600      22.996      26.271      26.269      22.991      17.592      11.879      7.4803      5.0803      4.1185    
  3.5158      3.1206      2.9378      2.9378      3.1200      3.5136      4.1160      5.0803      7.4845      11.886    
  34.905      42.531      45.387      42.535      34.909      24.933      15.504      8.7859      5.3612      4.1539    
  3.5142      3.1353      3.0159      3.1351      3.5136      4.1537      5.3632      8.7903      15.508      24.933    
  59.580      67.644      67.647      59.588      45.972      30.766      17.792      9.3107      5.3615      4.1151    
  3.4940      3.1877      3.1877      3.4943      4.1160      5.3632      9.3125      17.792      30.762      45.965    
  87.708      93.299      87.707      72.678      52.670      32.992      17.795      8.7906      5.0795      4.0116    
  3.4726      3.2952      3.4725      4.0120      5.0803      8.7903      17.792      32.988      52.668      72.678    
  112.73      112.73      99.687      77.603      52.667      30.765      15.510      7.4850      4.6803      3.8675    
  3.4719      3.4716      3.8672      4.6804      7.4845      15.508      30.762      52.668      77.609      99.694    
  127.56      120.00      99.694      72.678      45.965      24.933      11.886      6.0044      4.3259      3.7141    
  3.5068      3.7141      4.3259      6.0044      11.886      24.933      45.965      72.678      99.694      120.00    
  105.94      87.723      63.604      39.952      21.576      10.421      5.5714      4.2066      3.6284      3.4349    
  3.6286      4.2064      5.5717      10.424      21.581      39.953      63.595      87.706      105.92      112.73    
  87.723      67.659      45.388      26.265      13.309      6.7319      4.5240      3.7988      3.4335      3.4336    
  3.7983      4.5230      6.7328      13.314      26.271      45.387      67.647      87.707      99.687      99.694    
  63.604      45.388      28.025      15.094      7.7371      4.8394      3.9521      3.4593      3.2988      3.4595    
  3.9510      4.8372      7.7368      15.098      28.031      45.392      63.604      77.606      82.882      77.609    
  39.952      26.265      15.094      8.1347      5.0546      4.0590      3.4955      3.2208      3.2212      3.4958    
  4.0574      5.0509      8.1314      15.095      26.272      39.964      52.679      60.390      60.385      52.668    
  21.576      13.309      7.7371      5.0546      4.0974      3.5215      3.1851      3.0802      3.1858      3.5223    
  4.0967      5.0510      7.7320      13.307      21.581      30.773      38.064      40.845      38.055      30.762    
  10.421      6.7319      4.8394      4.0590      3.5215      3.1757      3.0175      3.0174      3.1764      3.5236    
  4.0610      4.8387      6.7278      10.416      15.506      20.558      23.726      23.725      20.557      15.508    
  5.5714      4.5240      3.9521      3.4955      3.1851      3.0175      2.9656      3.0166      3.1852      3.4981    
  3.9565      4.5275      5.5713      7.4806      9.9335      12.043      12.880      12.047      9.9390      7.4845    
  4.2066      3.7988      3.4593      3.2208      3.0802      3.0174      3.0166      3.0779      3.2185      3.4592    
  3.8025      4.2127      4.6849      5.3912      6.2187      6.7918      6.7935      6.2215      5.3911      4.6804    
  3.6284      3.4335      3.2988      3.2212      3.1858      3.1764      3.1852      3.2185      3.2939      3.4294    
  3.6286      3.8719      4.1204      4.3366      4.5115      4.5840      4.5103      4.3330      4.1146      3.8672    
  3.4349      3.4336      3.4595      3.4958      3.5223      3.5236      3.4981      3.4592      3.4294      3.4288    
  3.4674      3.5413      3.6334      3.7176      3.7673      3.7657      3.7139      3.6302      3.5414      3.4716    
  3.6286      3.7983      3.9510      4.0574      4.0967      4.0610      3.9565      3.8025      3.6286      3.4674    
  3.3452      3.2731      3.2443      3.2393      3.2393      3.2377      3.2440      3.2766      3.3511      3.4719    
  4.2064      4.5230      4.8372      5.0509      5.0510      4.8387      4.5275      4.2127      3.8719      3.5413    
  3.2731      3.0900      2.9855      2.9402      2.9403      2.9868      3.0932      3.2764      3.5414      3.8675    
  5.5717      6.7328      7.7368      8.1314      7.7320      6.7278      5.5713      4.6849      4.1204      3.6334    
  3.2443      2.9855      2.8465      2.8041      2.8477      2.9870      3.2442      3.6301      4.1146      4.6803    
  10.424      13.314      15.098      15.095      13.307      10.416      7.4806      5.3912      4.3366      3.7176    
  3.2393      2.9402      2.8041      2.8044      2.9403      3.2379      3.7144      4.3335      5.3911      7.4850    
  21.581      26.271      28.031      26.272      21.581      15.506      9.9335      6.2187      4.5115      3.7673    
  3.2393      2.9403      2.8477      2.9403      3.2383      3.7656      4.5115      6.2222      9.9390      15.510    
  39.953      45.387      45.392      39.964      30.773      20.558      12.043      6.7918      4.5840      3.7657    
  3.2377      2.9868      2.9870      3.2379      3.7656      4.5852      6.7953      12.047      20.557      30.765    
  63.595      67.647      63.604      52.679      38.064      23.726      12.880      6.7935      4.5103      3.7139    
  3.2440      3.0932      3.2442      3.7144      4.5115      6.7953      12.880      23.723      38.055      52.667    
  87.706      87.707      77.606      60.390      40.845      23.725      12.047      6.2215      4.3330      3.6302    
  3.2766      3.2764      3.6301      4.3335      6.2222      12.047      23.723      40.841      60.385      77.603    
  105.92      99.687      82.882      60.385      38.055      20.557      9.9390      5.3911      4.1146      3.5414    
  3.3511      3.5414      4.1146      5.3911      9.9390      20.557      38.055      60.385      82.882      99.687    
  112.73      99.694      77.609      52.668      30.762      15.508      7.4845      4.6804      3.8672      3.4716    
  3.4719      3.8675      4.6803      7.4850      15.510      30.765      52.667      77.603      99.687      112.73    
  77.219      59.585      39.952      23.099      11.787      6.1922      4.3756      3.6917      3.3460      3.3461    
  3.6915      4.3746      6.1917      11.789      23.102      39.954      59.584      77.215      87.706      87.708    
  59.585      42.531      26.265      14.183      7.3736      4.7386      3.8989      3.4185      3.2630      3.4189    
  3.8981      4.7365      7.3723      14.185      26.269      42.535      59.588      72.678      77.603      72.678    
  39.952      26.265      15.094      8.1347      5.0546      4.0590      3.4955      3.2208      3.2212      3.4958    
  4.0574      5.0509      8.1314      15.095      26.272      39.964      52.679      60.390      60.385      52.668    
  23.099      14.183      8.1347      5.1829      4.1454      3.5550      3.2076      3.0990      3.2083      3.5554    
  4.1437      5.1779      8.1289      14.183      23.108      33.004      40.854      43.847      40.841      32.988    
  11.787      7.3736      5.0546      4.1454      3.5774      3.2069      3.0370      3.0373      3.2079      3.5789    
  4.1448      5.0498      7.3668      11.785      17.798      23.733      27.446      27.442      23.723      17.792    
  6.1922      4.7386      4.0590      3.5550      3.2069      3.0186      2.9610      3.0186      3.2082      3.5578    
  4.0608      4.7369      6.1875      8.7858      12.045      14.813      15.903      14.813      12.047      8.7903    
  4.3756      3.8989      3.4955      3.2076      3.0370      2.9610      2.9603      3.0359      3.2079      3.4981    
  3.9028      4.3782      5.0795      6.2183      7.5189      8.4010      8.4029      7.5234      6.2222      5.0803    
  3.6917      3.4185      3.2208      3.0990      3.0373      3.0186      3.0359      3.0965      3.2184      3.4185    
  3.6950      4.0167      4.3364      4.6836      5.0118      5.1517      5.0132      4.6838      4.3335      4.0120    
  3.3460      3.2630      3.2212      3.2083      3.2079      3.2082      3.2079      3.2184      3.2583      3.3425    
  3.4727      3.6335      3.7963      3.9283      4.0019      4.0012      3.9259      3.7923      3.6301      3.4725    
  3.3461      3.4189      3.4958      3.5554      3.5789      3.5578      3.4981      3.4185      3.3425      3.2904    
  3.2732      3.2895      3.3256      3.3599      3.3731      3.3579      3.3234      3.2896      3.2764      3.2952    
  3.6915      3.8981      4.0574      4.1437      4.1448      4.0608      3.9028      3.6950      3.4727      3.2732    
  3.1230      3.0294      2.9821      2.9640      2.9635      2.9818      3.0313      3.1271      3.2766      3.4726    
  4.3746      4.7365      5.0509      5.1779      5.0498      4.7369      4.3782      4.0167      3.6335      3.2895    
  3.0294      2.8625      2.7745      2.7476      2.7749      2.8640      3.0313      3.2896      3.6302      4.0116    
  6.1917      7.3723      8.1314      8.1289      7.3668      6.1875      5.0795      4.3364      3.7963      3.3256    
  2.9821      2.7745      2.6809      2.6812      2.7752      2.9820      3.3234      3.7923      4.3330      5.0795    
  11.789      14.185      15.095      14.183      11.785      8.7858      6.2183      4.6836      3.9283      3.3599    
  2.9640      2.7476      2.6812      2.7479      2.9635      3.3579      3.9263      4.6838      6.2215      8.7906    
  23.102      26.269      26.272      23.108      17.798      12.045      7.5189      5.0118      4.0019      3.3731    
  2.9635      2.7749      2.7752      2.9635      3.3722      4.0018      5.0143      7.5234      12.047      17.795    
  39.954      42.535      39.964      33.004      23.733      14.813      8.4010      5.1517      4.0012      3.3579    
  2.9818      2.8640      2.9820      3.3579      4.0018      5.1540      8.4042      14.813      23.725      32.992    
  59.584      59.588      52.679      40.854      27.446      15.903      8.4029      5.0132      3.9259      3.3234    
  3.0313      3.0313      3.3234      3.9263      5.0143      8.4042      15.902      27.442      40.845      52.670    
  77.215      72.678      60.390      43.847      27.442      14.813      7.5234      4.6838      3.7923      3.2896    
  3.1271      3.2896      3.7923      4.6838      7.5234      14.813      27.442      43.847      60.390      72.678    
  87.706      77.603      60.385      40.841      23.723      12.047      6.2222      4.3335      3.6301      3.2764    
  3.2766      3.6302      4.3330      6.2215      12.047      23.725      40.845      60.390      77.606      87.707    
  87.708      72.678      52.668      32.988      17.792      8.7903      5.0803      4.0120      3.4725      3.2952    
  3.4726      4.0116      5.0795      8.7906      17.795      32.992      52.670      72.678      87.707      93.299    
  48.883      34.903      21.576      11.787      6.4468      4.4823      3.7458      3.3038      3.1625      3.3041    
  3.7457      4.4809      6.4442      11.785      21.576      34.906      48.888      59.584      63.595      59.580    
  34.903      22.989      13.309      7.3736      4.8279      3.9581      3.4227      3.1651      3.1655      3.4235    
  3.9577      4.8254      7.3699      13.307      22.991      34.909      45.972      52.670      52.667      45.965    
  21.576      13.309      7.7371      5.0546      4.0974      3.5215      3.1851      3.0802      3.1858      3.5223    
  4.0967      5.0510      7.7320      13.307      21.581      30.773      38.064      40.845      38.055      30.762    
  11.787      7.3736      5.0546      4.1454      3.5774      3.2069      3.0370      3.0373      3.2079      3.5789    
  4.1448      5.0498      7.3668      11.785      17.798      23.733      27.446      27.442      23.723      17.792    
  6.4468      4.8279      4.0974      3.5774      3.2160      3.0205      2.9610      3.0209      3.2178      3.5799    
  4.0975      4.8233      6.4400      9.3085      12.881      15.905      17.093      15.902      12.880      9.3125    
  4.4823      3.9581      3.5215      3.2069      3.0205      2.9380      2.9377      3.0206      3.2088      3.5246    
  3.9600      4.4808      5.3586      6.7900      8.4005      9.4824      9.4837      8.4042      6.7953      5.3632    
  3.7458      3.4227      3.1851      3.0370      2.9610      2.9377      2.9600      3.0361      3.1857      3.4253    
  3.7492      4.1178      4.5102      5.0106      5.4914      5.6952      5.4946      5.0143      4.5115      4.1160    
  3.3038      3.1651      3.0802      3.0373      3.0209      3.0206      3.0361      3.0780      3.1631      3.3039    
  3.4968      3.7175      3.9278      4.0905      4.1840      4.1844      4.0907      3.9263      3.7144      3.4943    
  3.1625      3.1655      3.1858      3.2079      3.2178      3.2088      3.1857      3.1631      3.1588      3.1852    
  3.2442      3.3254      3.4090      3.4716      3.4944      3.4702      3.4067      3.3234      3.2442      3.1877    
  3.3041      3.4235      3.5223      3.5789      3.5799      3.5246      3.4253      3.3039      3.1852      3.0898    
  3.0291      3.0021      2.9975      3.0000      2.9993      2.9963      3.0022      3.0313      3.0932      3.1877    
  3.7457      3.9577      4.0967      4.1448      4.0975      3.9600      3.7492      3.4968      3.2442      3.0291    
  2.8725      2.7750      2.7248      2.7094      2.7245      2.7758      2.8748      3.0313      3.2440      3.4940    
  4.4809      4.8254      5.0510      5.0498      4.8233      4.4808      4.1178      3.7175      3.3254      3.0021    
  2.7750      2.6396      2.5783      2.5784      2.6400      2.7758      3.0022      3.3234      3.7139      4.1151    
  6.4442      7.3699      7.7320      7.3668      6.4400      5.3586      4.5102      3.9278      3.4090      2.9975    
  2.7248      2.5783      2.5334      2.5787      2.7247      2.9962      3.4067      3.9259      4.5103      5.3615    
  11.785      13.307      13.307      11.785      9.3085      6.7900      5.0106      4.0905      3.4716      3.0000    
  2.7094      2.5784      2.5787      2.7096      2.9991      3.4703      4.0907      5.0132      6.7935      9.3107    
  21.576      22.991      21.581      17.798      12.881      8.4005      5.4914      4.1840      3.4944      2.9993    
  2.7245      2.6400      2.7247      2.9991      3.4943      4.1853      5.4946      8.4029      12.880      17.792    
  34.906      34.909      30.773      23.733      15.905      9.4824      5.6952      4.1844      3.4702      2.9963    
  2.7758      2.7758      2.9962      3.4703      4.1853      5.6972      9.4837      15.903      23.726      30.766    
  48.888      45.972      38.064      27.446      17.093      9.4837      5.4946      4.0907      3.4067      3.0022    
  2.8748      3.0022      3.4067      4.0907      5.4946      9.4837      17.093      27.446      38.064      45.972    
  59.584      52.670      40.845      27.442      15.902      8.4042      5.0143      3.9263      3.3234      3.0313    
  3.0313      3.3234      3.9259      5.0132      8.4029      15.903      27.446      40.854      52.679      59.588    
  63.595      52.667      38.055      23.723      12.880      6.7953      4.5115      3.7144      3.2442      3.0932    
  3.2440      3.7139      4.5103      6.7935      12.880      23.726      38.064      52.679      63.604      67.647    
  59.580      45.965      30.762      17.792      9.3125      5.3632      4.1160      3.4943      3.1877      3.1877    
  3.4940      4.1151      5.3615      9.3107      17.792      30.766      45.972      59.588      67.647      67.644    
  26.560      17.596      10.421      6.1922      4.4823      3.7673      3.2900      3.0647      3.0650      3.2909    
  3.7686      4.4825      6.1895      10.416      17.591      26.558      34.906      39.954      39.953      34.905    
  17.596      11.046      6.7319      4.7386      3.9581      3.4272      3.1231      3.0284      3.1235      3.4287    
  3.9600      4.7386      6.7285      11.041      17.592      24.933      30.766      32.992      30.765      24.933    
  10.421      6.7319      4.8394      4.0590      3.5215      3.1757      3.0175      3.0174      3.1764      3.5236    
  4.0610      4.8387      6.7278      10.416      15.506      20.558      23.726      23.725      20.557      15.508    
  6.1922      4.7386      4.0590      3.5550      3.2069      3.0186      2.9610      3.0186      3.2082      3.5578    
  4.0608      4.7369      6.1875      8.7858      12.045      14.813      15.903      14.813      12.047      8.7903    
  4.4823      3.9581      3.5215      3.2069      3.0205      2.9380      2.9377      3.0206      3.2088      3.5246    
  3.9600      4.4808      5.3586      6.7900      8.4005      9.4824      9.4837      8.4042      6.7953      5.3632    
  3.7673      3.4272      3.1757      3.0186      2.9380      2.9135      2.9374      3.0186      3.1773      3.4303    
  3.7700      4.1539      4.5820      5.1491      5.6935      5.9234      5.6972      5.1540      4.5852      4.1537    
  3.2900      3.1231      3.0175      2.9610      2.9377      2.9374      2.9602      3.0167      3.1235      3.2923    
  3.5167      3.7674      4.0007      4.1827      4.2963      4.2977      4.1853      4.0018      3.7656      3.5136    
  3.0647      3.0284      3.0174      3.0186      3.0206      3.0186      3.0167      3.0268      3.0634      3.1354    
  3.2397      3.3598      3.4710      3.5493      3.5776      3.5494      3.4703      3.3579      3.2379      3.1351    
  3.0650      3.1235      3.1764      3.2082      3.2088      3.1773      3.1235      3.0634      3.0135      2.9854    
  2.9819      2.9973      3.0193      3.0345      3.0340      3.0181      2.9962      2.9820      2.9870      3.0159    
  3.2909      3.4287      3.5236      3.5578      3.5246      3.4303      3.2923      3.1354      2.9854      2.8620    
  2.7746      2.7217      2.6954      2.6874      2.6948      2.7216      2.7758      2.8640      2.9868      3.1353    
  3.7686      3.9600      4.0610      4.0608      3.9600      3.7700      3.5167      3.2397      2.9819      2.7746    
  2.6292      2.5414      2.5008      2.5008      2.5416      2.6303      2.7758      2.9818      3.2377      3.5142    
  4.4825      4.7386      4.8387      4.7369      4.4808      4.1539      3.7674      3.3598      2.9973      2.7217    
  2.5414      2.4437      2.4132      2.4438      2.5416      2.7216      2.9963      3.3579      3.7657      4.1539    
  6.1895      6.7285      6.7278      6.1875      5.3586      4.5820      4.0007      3.4710      3.0193      2.6954    
  2.5008      2.4132      2.4134      2.5010      2.6948      3.0181      3.4702      4.0012      4.5840      5.3612    
  10.416      11.041      10.416      8.7858      6.7900      5.1491      4.1827      3.5493      3.0345      2.6874    
  2.5008      2.4438      2.5010      2.6872      3.0339      3.5494      4.1844      5.1517      6.7918      8.7859    
  17.591      17.592      15.506      12.045      8.4005      5.6935      4.2963      3.5776      3.0340      2.6948    
  2.5416      2.5416      2.6948      3.0339      3.5781      4.2977      5.6952      8.4010      12.043      15.504    
  26.558      24.933      20.558      14.813      9.4824      5.9234      4.2977      3.5494      3.0181      2.7216    
  2.6303      2.7216      3.0181      3.5494      4.2977      5.9234      9.4824      14.813      20.558      24.933    
  34.906      30.766      23.726      15.903      9.4837      5.6972      4.1853      3.4703      2.9962      2.7758    
  2.7758      2.9963      3.4702      4.1844      5.6952      9.4824      15.905      23.733      30.773      34.909    
  39.954      32.992      23.725      14.813      8.4042      5.1540      4.0018      3.3579      2.9820      2.8640    
  2.9818      3.3579      4.0012      5.1517      8.4010      14.813      23.733      33.004      39.964      42.535    
  39.953      30.765      20.557      12.047      6.7953      4.5852      3.7656      3.2379      2.9870      2.9868    
  3.2377      3.7657      4.5840      6.7918      12.043      20.558      30.773      39.964      45.392      45.387    
  34.905      24.933      15.508      8.7903      5.3632      4.1537      3.5136      3.1351      3.0159      3.1353    
  3.5142      4.1539      5.3612      8.7859      15.504      24.933      34.909      42.535      45.387      42.531    
  12.628      8.2895      5.5714      4.3756      3.7458      3.2900      3.0349      2.9555      3.0348      3.2914    
  3.7493      4.3791      5.5716      8.2847      12.620      17.591      21.576      23.102      21.581      17.600    
  8.2895      5.7675      4.5240      3.8989      3.4227      3.1231      2.9862      2.9858      3.1230      3.4249    
  3.9033      4.5280      5.7676      8.2849      11.879      15.504      17.792      17.795      15.510      11.886    
  5.5714      4.5240      3.9521      3.4955      3.1851      3.0175      2.9656      3.0166      3.1852      3.4981    