fcc Ni                                  
   3.40000000000000     
     0.000000    0.500000    0.500000
     0.500000    0.000000    0.500000
     0.500000    0.500000    0.000000
   Ni
     1
Direct
  0.000000  0.000000  0.000000
 
   20   20   20
 0.13564574108E+03 0.12757260573E+03 0.10593572078E+03 0.77219250360E+02 0.48882687436E+02
 0.26560225558E+02 0.12628035427E+02 0.62482892061E+01 0.44003594650E+01 0.37754465478E+01
 0.35626888765E+01 0.37754465478E+01 0.44003594650E+01 0.62482892061E+01 0.12628035427E+02
 0.26560225558E+02 0.48882687436E+02 0.77219250360E+02 0.10593572078E+03 0.12757260573E+03
 0.12757260573E+03 0.11274705713E+03 0.87723348059E+02 0.59585438616E+02 0.34902827920E+02
 0.17595970798E+02 0.82894874480E+01 0.48994332293E+01 0.39959060681E+01 0.35801736498E+01
 0.35804832398E+01 0.39962911288E+01 0.48996674700E+01 0.82910441585E+01 0.17599685180E+02
 0.34905242170E+02 0.59580170110E+02 0.87708302834E+02 0.11272954448E+03 0.12756477199E+03
 0.10593572078E+03 0.87723348059E+02 0.63604256430E+02 0.39951610736E+02 0.21575584714E+02
 0.10420828116E+02 0.55713767467E+01 0.42066206109E+01 0.36283894983E+01 0.34348658698E+01
 0.36286150245E+01 0.42064151299E+01 0.55717215093E+01 0.10424002873E+02 0.21580851815E+02
 0.39952920915E+02 0.63595403234E+02 0.87706304618E+02 0.10592171980E+03 0.11272954448E+03
 0.77219250360E+02 0.59585438616E+02 0.39951610736E+02 0.23098514919E+02 0.11787475934E+02
 0.61922267303E+01 0.43755824341E+01 0.36917444092E+01 0.33460162837E+01 0.33460856303E+01
 0.36914530084E+01 0.43745590973E+01 0.61916722686E+01 0.11789105219E+02 0.23101889561E+02
 0.39953719190E+02 0.59583893992E+02 0.77215452550E+02 0.87706304618E+02 0.87708302834E+02
 0.48882687436E+02 0.34902827920E+02 0.21575584714E+02 0.11787475934E+02 0.64467678759E+01
 0.44823177641E+01 0.37458367467E+01 0.33038273607E+01 0.31624559613E+01 0.33041349581E+01
 0.37456850324E+01 0.44809096442E+01 0.64442477999E+01 0.11785303284E+02 0.21575718257E+02
 0.34906094914E+02 0.48887682220E+02 0.59583893992E+02 0.63595403234E+02 0.59580170110E+02
 0.26560225558E+02 0.17595970798E+02 0.10420828116E+02 0.61922267303E+01 0.44823177641E+01
 0.37673050737E+01 0.32900130846E+01 0.30647452692E+01 0.30649851449E+01 0.32909076889E+01
 0.37686012676E+01 0.44824687226E+01 0.61895219033E+01 0.10415674185E+02 0.17591213430E+02
 0.26558462270E+02 0.34906094914E+02 0.39953719190E+02 0.39952920915E+02 0.34905242170E+02
 0.12628035427E+02 0.82894874480E+01 0.55713767467E+01 0.43755824341E+01 0.37458367467E+01
 0.32900130846E+01 0.30348681597E+01 0.29555385274E+01 0.30347920391E+01 0.32913953226E+01
 0.37493160945E+01 0.43791476338E+01 0.55716257383E+01 0.82846535295E+01 0.12619595643E+02
 0.17591213430E+02 0.21575718257E+02 0.23101889561E+02 0.21580851815E+02 0.17599685180E+02
 0.62482892061E+01 0.48994332293E+01 0.42066206109E+01 0.36917444092E+01 0.33038273607E+01
 0.30647452692E+01 0.29555385274E+01 0.29547481905E+01 0.30632920646E+01 0.33039172896E+01
 0.36952091015E+01 0.42128138420E+01 0.49046326709E+01 0.62481434353E+01 0.82846535295E+01
 0.10415674185E+02 0.11785303284E+02 0.11789105219E+02 0.10424002873E+02 0.82910441585E+01
 0.44003594650E+01 0.39959060681E+01 0.36283894983E+01 0.33460162837E+01 0.31624559613E+01
 0.30649851449E+01 0.30347920391E+01 0.30632920646E+01 0.31589943789E+01 0.33425408148E+01
 0.36284245990E+01 0.40012392651E+01 0.44081490627E+01 0.49046326709E+01 0.55716257383E+01
 0.61895219033E+01 0.64442477999E+01 0.61916722686E+01 0.55717215093E+01 0.48996674700E+01
 0.37754465478E+01 0.35801736498E+01 0.34348658698E+01 0.33460856303E+01 0.33041349581E+01
 0.32909076889E+01 0.32913953226E+01 0.33039172896E+01 0.33425408148E+01 0.34285315148E+01
 0.35751616764E+01 0.37755082982E+01 0.40012392651E+01 0.42128138420E+01 0.43791476338E+01
 0.44824687226E+01 0.44809096442E+01 0.43745590973E+01 0.42064151299E+01 0.39962911288E+01
 0.35626888765E+01 0.35804832398E+01 0.36286150245E+01 0.36914530084E+01 0.37456850324E+01
 0.37686012676E+01 0.37493160945E+01 0.36952091015E+01 0.36284245990E+01 0.35751616764E+01
 0.35550462102E+01 0.35751616764E+01 0.36284245990E+01 0.36952091015E+01 0.37493160945E+01
 0.37686012676E+01 0.37456850324E+01 0.36914530084E+01 0.36286150245E+01 0.35804832398E+01
 0.37754465478E+01 0.39962911288E+01 0.42064151299E+01 0.43745590973E+01 0.44809096442E+01
 0.44824687226E+01 0.43791476338E+01 0.42128138420E+01 0.40012392651E+01 0.37755082982E+01
 0.35751616764E+01 0.34285315148E+01 0.33425408148E+01 0.33039172896E+01 0.32913953226E+01
 0.32909076889E+01 0.33041349581E+01 0.33460856303E+01 0.34348658698E+01 0.35801736498E+01
 0.44003594650E+01 0.48996674700E+01 0.55717215093E+01 0.61916722686E+01 0.64442477999E+01
 0.61895219033E+01 0.55716257383E+01 0.49046326709E+01 0.44081490627E+01 0.40012392651E+01
 0.36284245990E+01 0.33425408148E+01 0.31589943789E+01 0.30632920646E+01 0.30347920391E+01
 0.30649851449E+01 0.31624559613E+01 0.33460162837E+01 0.36283894983E+01 0.39959060681E+01
 0.62482892061E+01 0.82910441585E+01 0.10424002873E+02 0.11789105219E+02 0.11785303284E+02
 0.10415674185E+02 0.82846535295E+01 0.62481434353E+01 0.49046326709E+01 0.42128138420E+01
 0.36952091015E+01 0.33039172896E+01 0.30632920646E+01 0.29547481905E+01 0.29555385274E+01
 0.30647452692E+01 0.33038273607E+01 0.36917444092E+01 0.42066206109E+01 0.48994332293E+01
 0.12628035427E+02 0.17599685180E+02 0.21580851815E+02 0.23101889561E+02 0.21575718257E+02
 0.17591213430E+02 0.12619595643E+02 0.82846535295E+01 0.55716257383E+01 0.43791476338E+01
 0.37493160945E+01 0.32913953226E+01 0.30347920391E+01 0.29555385274E+01 0.30348681597E+01
 0.32900130846E+01 0.37458367467E+01 0.43755824341E+01 0.55713767467E+01 0.82894874480E+01
 0.26560225558E+02 0.34905242170E+02 0.39952920915E+02 0.39953719190E+02 0.34906094914E+02
 0.26558462270E+02 0.17591213430E+02 0.10415674185E+02 0.61895219033E+01 0.44824687226E+01
 0.37686012676E+01 0.32909076889E+01 0.30649851449E+01 0.30647452692E+01 0.32900130846E+01
 0.37673050737E+01 0.44823177641E+01 0.61922267303E+01 0.10420828116E+02 0.17595970798E+02
 0.48882687436E+02 0.59580170110E+02 0.63595403234E+02 0.59583893992E+02 0.48887682220E+02
 0.34906094914E+02 0.21575718257E+02 0.11785303284E+02 0.64442477999E+01 0.44809096442E+01
 0.37456850324E+01 0.33041349581E+01 0.31624559613E+01 0.33038273607E+01 0.37458367467E+01
 0.44823177641E+01 0.64467678759E+01 0.11787475934E+02 0.21575584714E+02 0.34902827920E+02
 0.77219250360E+02 0.87708302834E+02 0.87706304618E+02 0.77215452550E+02 0.59583893992E+02
 0.39953719190E+02 0.23101889561E+02 0.11789105219E+02 0.61916722686E+01 0.43745590973E+01
 0.36914530084E+01 0.33460856303E+01 0.33460162837E+01 0.36917444092E+01 0.43755824341E+01
 0.61922267303E+01 0.11787475934E+02 0.23098514919E+02 0.39951610736E+02 0.59585438616E+02
 0.10593572078E+03 0.11272954448E+03 0.10592171980E+03 0.87706304618E+02 0.63595403234E+02
 0.39952920915E+02 0.21580851815E+02 0.10424002873E+02 0.55717215093E+01 0.42064151299E+01
 0.36286150245E+01 0.34348658698E+01 0.36283894983E+01 0.42066206109E+01 0.55713767467E+01
 0.10420828116E+02 0.21575584714E+02 0.39951610736E+02 0.63604256430E+02 0.87723348059E+02
 0.12757260573E+03 0.12756477199E+03 0.11272954448E+03 0.87708302834E+02 0.59580170110E+02
 0.34905242170E+02 0.17599685180E+02 0.82910441585E+01 0.48996674700E+01 0.39962911288E+01
 0.35804832398E+01 0.35801736498E+01 0.39959060681E+01 0.48994332293E+01 0.82894874480E+01
 0.17595970798E+02 0.34902827920E+02 0.59585438616E+02 0.87723348059E+02 0.11274705713E+03
 0.12757260573E+03 0.11274705713E+03 0.87723348059E+02 0.59585438616E+02 0.34902827920E+02
 0.17595970798E+02 0.82894874480E+01 0.48994332293E+01 0.39959060681E+01 0.35801736498E+01
 0.35804832398E+01 0.39962911288E+01 0.48996674700E+01 0.82910441585E+01 0.17599685180E+02
 0.34905242170E+02 0.59580170110E+02 0.87708302834E+02 0.11272954448E+03 0.12756477199E+03
 0.11274705713E+03 0.93324690964E+02 0.67658548164E+02 0.42530636176E+02 0.22989035797E+02
 0.11046228658E+02 0.57674700564E+01 0.42739440304E+01 0.36837323978E+01 0.34848058599E+01
 0.36839419653E+01 0.42736965695E+01 0.57682393890E+01 0.11050851385E+02 0.22995871584E+02
 0.42530891239E+02 0.67643834840E+02 0.93298558589E+02 0.11272606771E+03 0.12000013090E+03
 0.87723348059E+02 0.67658548164E+02 0.45388183307E+02 0.26264628164E+02 0.13309130071E+02
 0.67318737973E+01 0.45240307577E+01 0.37987648526E+01 0.34335048264E+01 0.34335782205E+01
 0.37983187092E+01 0.45229950568E+01 0.67328073549E+01 0.13314281618E+02 0.26270783791E+02
 0.45387485017E+02 0.67646974489E+02 0.87707483161E+02 0.99686889190E+02 0.99694332503E+02
 0.59585438616E+02 0.42530636176E+02 0.26264628164E+02 0.14183052800E+02 0.73736008318E+01
 0.47385638906E+01 0.38988741057E+01 0.34185470728E+01 0.32629839048E+01 0.34188756739E+01
 0.38981265552E+01 0.47364599562E+01 0.73722657110E+01 0.14184856833E+02 0.26269214554E+02
 0.42535104168E+02 0.59587543031E+02 0.72678047386E+02 0.77603105203E+02 0.72677816091E+02
 0.34902827920E+02 0.22989035797E+02 0.13309130071E+02 0.73736008318E+01 0.48279002044E+01
 0.39581156897E+01 0.34227456132E+01 0.31650680836E+01 0.31655199670E+01 0.34234715243E+01
 0.39576967301E+01 0.48253908059E+01 0.73698652986E+01 0.13306930891E+02 0.22991127645E+02
 0.34909254373E+02 0.45972144096E+02 0.52670068201E+02 0.52666922048E+02 0.45964943395E+02
 0.17595970798E+02 0.11046228658E+02 0.67318737973E+01 0.47385638906E+01 0.39581156897E+01
 0.34272159749E+01 0.31230815950E+01 0.30284313820E+01 0.31235184541E+01 0.34286596860E+01
 0.39599508259E+01 0.47385662003E+01 0.67285481940E+01 0.11041110515E+02 0.17592478120E+02
 0.24932902579E+02 0.30765809547E+02 0.32991987889E+02 0.30764578259E+02 0.24933130981E+02
 0.82894874480E+01 0.57674700564E+01 0.45240307577E+01 0.38988741057E+01 0.34227456132E+01
 0.31230815950E+01 0.29862097163E+01 0.29857831104E+01 0.31229725933E+01 0.34249240145E+01
 0.39033149839E+01 0.45279696291E+01 0.57676234931E+01 0.82848949292E+01 0.11878790404E+02
 0.15503578692E+02 0.17792394357E+02 0.17794853111E+02 0.15509884548E+02 0.11886024670E+02
 0.48994332293E+01 0.42739440304E+01 0.37987648526E+01 0.34185470728E+01 0.31650680836E+01
 0.30284313820E+01 0.29857831104E+01 0.30268302718E+01 0.31631866384E+01 0.34186897665E+01
 0.38026547246E+01 0.42805325698E+01 0.49046885950E+01 0.60044834006E+01 0.74802779381E+01
 0.87858551746E+01 0.93107111719E+01 0.87906046303E+01 0.74849965786E+01 0.60043884228E+01
 0.39959060681E+01 0.36837323978E+01 0.34335048264E+01 0.32629839048E+01 0.31655199670E+01
 0.31235184541E+01 0.31229725933E+01 0.31631866384E+01 0.32585407236E+01 0.34294081827E+01
 0.36838724822E+01 0.40013405988E+01 0.43331241954E+01 0.46848544674E+01 0.50803110041E+01
 0.53611999651E+01 0.53615089421E+01 0.50794954572E+01 0.46803478950E+01 0.43258886307E+01
 0.35801736498E+01 0.34848058599E+01 0.34335782205E+01 0.34188756739E+01 0.34234715243E+01
 0.34286596860E+01 0.34249240145E+01 0.34186897665E+01 0.34294081827E+01 0.34781799794E+01
 0.35753396820E+01 0.37140282541E+01 0.38716632818E+01 0.40168898667E+01 0.41185194946E+01
 0.41539043437E+01 0.41151250309E+01 0.40116032755E+01 0.38674803002E+01 0.37140516644E+01
 0.35804832398E+01 0.36839419653E+01 0.37983187092E+01 0.38981265552E+01 0.39576967301E+01
 0.39599508259E+01 0.39033149839E+01 0.38026547246E+01 0.36838724822E+01 0.35753396820E+01
 0.34996263360E+01 0.34671222423E+01 0.34725451918E+01 0.34967410797E+01 0.35157678878E+01
 0.35141768983E+01 0.34939853120E+01 0.34726095183E+01 0.34718788846E+01 0.35068262659E+01
 0.39962911288E+01 0.42736965695E+01 0.45229950568E+01 0.47364599562E+01 0.48253908059E+01
 0.47385662003E+01 0.45279696291E+01 0.42805325698E+01 0.40013405988E+01 0.37140282541E+01
 0.34671222423E+01 0.32902084611E+01 0.31852414162E+01 0.31350281806E+01 0.31206328816E+01
 0.31352800548E+01 0.31876712822E+01 0.32952132211E+01 0.34716086885E+01 0.37140516644E+01
 0.48996674700E+01 0.57682393890E+01 0.67328073549E+01 0.73722657110E+01 0.73698652986E+01
 0.67285481940E+01 0.57676234931E+01 0.49046885950E+01 0.43331241954E+01 0.38716632818E+01
 0.34725451918E+01 0.31852414162E+01 0.30135472465E+01 0.29369401323E+01 0.29377804405E+01
 0.30158660733E+01 0.31877463974E+01 0.34725213202E+01 0.38671556554E+01 0.43258886307E+01
 0.82910441585E+01 0.11050851385E+02 0.13314281618E+02 0.14184856833E+02 0.13306930891E+02
 0.11041110515E+02 0.82848949292E+01 0.60044834006E+01 0.46848544674E+01 0.40168898667E+01
 0.34967410797E+01 0.31350281806E+01 0.29369401323E+01 0.28762307239E+01 0.29377887748E+01
 0.31351175590E+01 0.34943130707E+01 0.40120305920E+01 0.46803764500E+01 0.60043884228E+01
 0.17599685180E+02 0.22995871584E+02 0.26270783791E+02 0.26269214554E+02 0.22991127645E+02
 0.17592478120E+02 0.11878790404E+02 0.74802779381E+01 0.50803110041E+01 0.41185194946E+01
 0.35157678878E+01 0.31206328816E+01 0.29377804405E+01 0.29377887748E+01 0.31199550154E+01
 0.35136029050E+01 0.41160114351E+01 0.50802577774E+01 0.74844558972E+01 0.11886024670E+02
 0.34905242170E+02 0.42530891239E+02 0.45387485017E+02 0.42535104168E+02 0.34909254373E+02
 0.24932902579E+02 0.15503578692E+02 0.87858551746E+01 0.53611999651E+01 0.41539043437E+01
 0.35141768983E+01 0.31352800548E+01 0.30158660733E+01 0.31351175590E+01 0.35136029050E+01
 0.41537199512E+01 0.53631582051E+01 0.87902743603E+01 0.15507717377E+02 0.24933130981E+02
 0.59580170110E+02 0.67643834840E+02 0.67646974489E+02 0.59587543031E+02 0.45972144096E+02
 0.30765809547E+02 0.17792394357E+02 0.93107111719E+01 0.53615089421E+01 0.41151250309E+01
 0.34939853120E+01 0.31876712822E+01 0.31877463974E+01 0.34943130707E+01 0.41160114351E+01
 0.53631582051E+01 0.93124576150E+01 0.17792357602E+02 0.30762074424E+02 0.45964943395E+02
 0.87708302834E+02 0.93298558589E+02 0.87707483161E+02 0.72678047386E+02 0.52670068201E+02
 0.32991987889E+02 0.17794853111E+02 0.87906046303E+01 0.50794954572E+01 0.40116032755E+01
 0.34726095183E+01 0.32952132211E+01 0.34725213202E+01 0.40120305920E+01 0.50802577774E+01
 0.87902743603E+01 0.17792357602E+02 0.32988310070E+02 0.52667541886E+02 0.72677816091E+02
 0.11272954448E+03 0.11272606771E+03 0.99686889190E+02 0.77603105203E+02 0.52666922048E+02
 0.30764578259E+02 0.15509884548E+02 0.74849965786E+01 0.46803478950E+01 0.38674803002E+01
 0.34718788846E+01 0.34716086885E+01 0.38671556554E+01 0.46803764500E+01 0.74844558972E+01
 0.15507717377E+02 0.30762074424E+02 0.52667541886E+02 0.77608651936E+02 0.99694332503E+02
 0.12756477199E+03 0.12000013090E+03 0.99694332503E+02 0.72677816091E+02 0.45964943395E+02
 0.24933130981E+02 0.11886024670E+02 0.60043884228E+01 0.43258886307E+01 0.37140516644E+01
 0.35068262659E+01 0.37140516644E+01 0.43258886307E+01 0.60043884228E+01 0.11886024670E+02
 0.24933130981E+02 0.45964943395E+02 0.72677816091E+02 0.99694332503E+02 0.12000013090E+03
 0.10593572078E+03 0.87723348059E+02 0.63604256430E+02 0.39951610736E+02 0.21575584714E+02
 0.10420828116E+02 0.55713767467E+01 0.42066206109E+01 0.36283894983E+01 0.34348658698E+01
 0.36286150245E+01 0.42064151299E+01 0.55717215093E+01 0.10424002873E+02 0.21580851815E+02
 0.39952920915E+02 0.63595403234E+02 0.87706304618E+02 0.10592171980E+03 0.11272954448E+03
 0.87723348059E+02 0.67658548164E+02 0.45388183307E+02 0.26264628164E+02 0.13309130071E+02
 0.67318737973E+01 0.45240307577E+01 0.37987648526E+01 0.34335048264E+01 0.34335782205E+01
 0.37983187092E+01 0.45229950568E+01 0.67328073549E+01 0.13314281618E+02 0.26270783791E+02
 0.45387485017E+02 0.67646974489E+02 0.87707483161E+02 0.99686889190E+02 0.99694332503E+02
 0.63604256430E+02 0.45388183307E+02 0.28024630843E+02 0.15093747514E+02 0.77371396959E+01
 0.48394402394E+01 0.39520628234E+01 0.34592792331E+01 0.32988229062E+01 0.34594798676E+01
 0.39509586762E+01 0.48372129065E+01 0.77368449921E+01 0.15097865509E+02 0.28031263411E+02
 0.45392471774E+02 0.63603867424E+02 0.77606394450E+02 0.82881556558E+02 0.77608651936E+02
 0.39951610736E+02 0.26264628164E+02 0.15093747514E+02 0.81346552828E+01 0.50546245064E+01
 0.40589601276E+01 0.34954553662E+01 0.32207660707E+01 0.32212316530E+01 0.34958178925E+01
 0.40573667816E+01 0.50508892850E+01 0.81314200159E+01 0.15094933436E+02 0.26272279187E+02
 0.39963713918E+02 0.52678679439E+02 0.60389686084E+02 0.60385176947E+02 0.52667541886E+02
 0.21575584714E+02 0.13309130071E+02 0.77371396959E+01 0.50546245064E+01 0.40974462073E+01
 0.35215074823E+01 0.31851176317E+01 0.30801587334E+01 0.31857975746E+01 0.35222748505E+01
 0.40967199909E+01 0.50509926506E+01 0.77319625075E+01 0.13307085928E+02 0.21580773422E+02
 0.30772892913E+02 0.38064296983E+02 0.40845263392E+02 0.38055337048E+02 0.30762074424E+02
 0.10420828116E+02 0.67318737973E+01 0.48394402394E+01 0.40589601276E+01 0.35215074823E+01
 0.31757191712E+01 0.30174519278E+01 0.30174030668E+01 0.31763594833E+01 0.35236075888E+01
 0.40610370443E+01 0.48387265423E+01 0.67278079785E+01 0.10416356522E+02 0.15506177906E+02
 0.20558064530E+02 0.23726432312E+02 0.23725378290E+02 0.20556764524E+02 0.15507717377E+02
 0.55713767467E+01 0.45240307577E+01 0.39520628234E+01 0.34954553662E+01 0.31851176317E+01
 0.30174519278E+01 0.29655919471E+01 0.30165673670E+01 0.31851970880E+01 0.34980632003E+01
 0.39564873096E+01 0.45275139872E+01 0.55713312892E+01 0.74805707565E+01 0.99335234703E+01
 0.12043368079E+02 0.12879691154E+02 0.12047244064E+02 0.99390233906E+01 0.74844558972E+01
 0.42066206109E+01 0.37987648526E+01 0.34592792331E+01 0.32207660707E+01 0.30801587334E+01
 0.30174030668E+01 0.30165673670E+01 0.30779463070E+01 0.32184757005E+01 0.34592423399E+01
 0.38025320037E+01 0.42127323299E+01 0.46848796172E+01 0.53912443391E+01 0.62186571999E+01
 0.67918249926E+01 0.67935114317E+01 0.62214991488E+01 0.53911180000E+01 0.46803764500E+01
 0.36283894983E+01 0.34335048264E+01 0.32988229062E+01 0.32212316530E+01 0.31857975746E+01
 0.31763594833E+01 0.31851970880E+01 0.32184757005E+01 0.32938728504E+01 0.34294103889E+01
 0.36286354253E+01 0.38718539450E+01 0.41203587457E+01 0.43366408758E+01 0.45115192744E+01
 0.45840437186E+01 0.45103484363E+01 0.43330200108E+01 0.41145923096E+01 0.38671556554E+01
 0.34348658698E+01 0.34335782205E+01 0.34594798676E+01 0.34958178925E+01 0.35222748505E+01
 0.35236075888E+01 0.34980632003E+01 0.34592423399E+01 0.34294103889E+01 0.34288391114E+01
 0.34674490488E+01 0.35413368938E+01 0.36334120188E+01 0.37176346509E+01 0.37673005911E+01
 0.37657061131E+01 0.37139014949E+01 0.36302050758E+01 0.35414192444E+01 0.34716086885E+01
 0.36286150245E+01 0.37983187092E+01 0.39509586762E+01 0.40573667816E+01 0.40967199909E+01
 0.40610370443E+01 0.39564873096E+01 0.38025320037E+01 0.36286354253E+01 0.34674490488E+01
 0.33452300078E+01 0.32731389924E+01 0.32442510473E+01 0.32393019620E+01 0.32393137190E+01
 0.32377473800E+01 0.32440276150E+01 0.32765573564E+01 0.33510893474E+01 0.34718788846E+01
 0.42064151299E+01 0.45229950568E+01 0.48372129065E+01 0.50508892850E+01 0.50509926506E+01
 0.48387265423E+01 0.45275139872E+01 0.42127323299E+01 0.38718539450E+01 0.35413368938E+01
 0.32731389924E+01 0.30900477116E+01 0.29854817183E+01 0.29401619056E+01 0.29403318898E+01
 0.29867750423E+01 0.30931810926E+01 0.32763964892E+01 0.35414192444E+01 0.38674803002E+01
 0.55717215093E+01 0.67328073549E+01 0.77368449921E+01 0.81314200159E+01 0.77319625075E+01
 0.67278079785E+01 0.55713312892E+01 0.46848796172E+01 0.41203587457E+01 0.36334120188E+01
 0.32442510473E+01 0.29854817183E+01 0.28464694455E+01 0.28040955921E+01 0.28476505447E+01
 0.29869545787E+01 0.32441582181E+01 0.36301038052E+01 0.41145923096E+01 0.46803478950E+01
 0.10424002873E+02 0.13314281618E+02 0.15097865509E+02 0.15094933436E+02 0.13307085928E+02
 0.10416356522E+02 0.74805707565E+01 0.53912443391E+01 0.43366408758E+01 0.37176346509E+01
 0.32393019620E+01 0.29401619056E+01 0.28040955921E+01 0.28044280881E+01 0.29403439432E+01
 0.32378637733E+01 0.37143748316E+01 0.43334993600E+01 0.53911180000E+01 0.74849965786E+01
 0.21580851815E+02 0.26270783791E+02 0.28031263411E+02 0.26272279187E+02 0.21580773422E+02
 0.15506177906E+02 0.99335234703E+01 0.62186571999E+01 0.45115192744E+01 0.37673005911E+01
 0.32393137190E+01 0.29403318898E+01 0.28476505447E+01 0.29403439432E+01 0.32383417021E+01
 0.37656435577E+01 0.45115477797E+01 0.62221900941E+01 0.99390233906E+01 0.15509884548E+02
 0.39952920915E+02 0.45387485017E+02 0.45392471774E+02 0.39963713918E+02 0.30772892913E+02
 0.20558064530E+02 0.12043368079E+02 0.67918249926E+01 0.45840437186E+01 0.37657061131E+01
 0.32377473800E+01 0.29867750423E+01 0.29869545787E+01 0.32378637733E+01 0.37656435577E+01
 0.45851864225E+01 0.67952665172E+01 0.12046875889E+02 0.20556764524E+02 0.30764578259E+02
 0.63595403234E+02 0.67646974489E+02 0.63603867424E+02 0.52678679439E+02 0.38064296983E+02
 0.23726432312E+02 0.12879691154E+02 0.67935114317E+01 0.45103484363E+01 0.37139014949E+01
 0.32440276150E+01 0.30931810926E+01 0.32441582181E+01 0.37143748316E+01 0.45115477797E+01
 0.67952665172E+01 0.12880264331E+02 0.23722944571E+02 0.38055337048E+02 0.52666922048E+02
 0.87706304618E+02 0.87707483161E+02 0.77606394450E+02 0.60389686084E+02 0.40845263392E+02
 0.23725378290E+02 0.12047244064E+02 0.62214991488E+01 0.43330200108E+01 0.36302050758E+01
 0.32765573564E+01 0.32763964892E+01 0.36301038052E+01 0.43334993600E+01 0.62221900941E+01
 0.12046875889E+02 0.23722944571E+02 0.40841070607E+02 0.60385176947E+02 0.77603105203E+02
 0.10592171980E+03 0.99686889190E+02 0.82881556558E+02 0.60385176947E+02 0.38055337048E+02
 0.20556764524E+02 0.99390233906E+01 0.53911180000E+01 0.41145923096E+01 0.35414192444E+01
 0.33510893474E+01 0.35414192444E+01 0.41145923096E+01 0.53911180000E+01 0.99390233906E+01
 0.20556764524E+02 0.38055337048E+02 0.60385176947E+02 0.82881556558E+02 0.99686889190E+02
 0.11272954448E+03 0.99694332503E+02 0.77608651936E+02 0.52667541886E+02 0.30762074424E+02
 0.15507717377E+02 0.74844558972E+01 0.46803764500E+01 0.38671556554E+01 0.34716086885E+01
 0.34718788846E+01 0.38674803002E+01 0.46803478950E+01 0.74849965786E+01 0.15509884548E+02
 0.30764578259E+02 0.52666922048E+02 0.77603105203E+02 0.99686889190E+02 0.11272606771E+03
 0.77219250360E+02 0.59585438616E+02 0.39951610736E+02 0.23098514919E+02 0.11787475934E+02
 0.61922267303E+01 0.43755824341E+01 0.36917444092E+01 0.33460162837E+01 0.33460856303E+01
 0.36914530084E+01 0.43745590973E+01 0.61916722686E+01 0.11789105219E+02 0.23101889561E+02
 0.39953719190E+02 0.59583893992E+02 0.77215452550E+02 0.87706304618E+02 0.87708302834E+02
 0.59585438616E+02 0.42530636176E+02 0.26264628164E+02 0.14183052800E+02 0.73736008318E+01
 0.47385638906E+01 0.38988741057E+01 0.34185470728E+01 0.32629839048E+01 0.34188756739E+01
 0.38981265552E+01 0.47364599562E+01 0.73722657110E+01 0.14184856833E+02 0.26269214554E+02
 0.42535104168E+02 0.59587543031E+02 0.72678047386E+02 0.77603105203E+02 0.72677816091E+02
 0.39951610736E+02 0.26264628164E+02 0.15093747514E+02 0.81346552828E+01 0.50546245064E+01
 0.40589601276E+01 0.34954553662E+01 0.32207660707E+01 0.32212316530E+01 0.34958178925E+01
 0.40573667816E+01 0.50508892850E+01 0.81314200159E+01 0.15094933436E+02 0.26272279187E+02
 0.39963713918E+02 0.52678679439E+02 0.60389686084E+02 0.60385176947E+02 0.52667541886E+02
 0.23098514919E+02 0.14183052800E+02 0.81346552828E+01 0.51829260936E+01 0.41453890334E+01
 0.35549963988E+01 0.32075736217E+01 0.30989916047E+01 0.32082557048E+01 0.35554145995E+01
 0.41436504178E+01 0.51779191833E+01 0.81288901210E+01 0.14182612852E+02 0.23107911991E+02
 0.33004494855E+02 0.40853812183E+02 0.43847365496E+02 0.40841070607E+02 0.32988310070E+02
 0.11787475934E+02 0.73736008318E+01 0.50546245064E+01 0.41453890334E+01 0.35774131709E+01
 0.32069007714E+01 0.30370418320E+01 0.30372558960E+01 0.32079155509E+01 0.35788934841E+01
 0.41448312091E+01 0.50498004800E+01 0.73667588243E+01 0.11784905028E+02 0.17797890265E+02
 0.23732529380E+02 0.27446357206E+02 0.27441620562E+02 0.23722944571E+02 0.17792357602E+02
 0.61922267303E+01 0.47385638906E+01 0.40589601276E+01 0.35549963988E+01 0.32069007714E+01
 0.30186326484E+01 0.29610166175E+01 0.30185772796E+01 0.32081932672E+01 0.35577676304E+01
 0.40607844800E+01 0.47368744121E+01 0.61875154751E+01 0.87857746167E+01 0.12044980538E+02
 0.14813180384E+02 0.15903001458E+02 0.14813164221E+02 0.12046875889E+02 0.87902743603E+01
 0.43755824341E+01 0.38988741057E+01 0.34954553662E+01 0.32075736217E+01 0.30370418320E+01
 0.29610166175E+01 0.29603478266E+01 0.30359427320E+01 0.32078932741E+01 0.34981385009E+01
 0.39027974555E+01 0.43781706201E+01 0.50794672123E+01 0.62182602043E+01 0.75188591065E+01
 0.84009656209E+01 0.84029255102E+01 0.75233603111E+01 0.62221900941E+01 0.50802577774E+01
 0.36917444092E+01 0.34185470728E+01 0.32207660707E+01 0.30989916047E+01 0.30372558960E+01
 0.30185772796E+01 0.30359427320E+01 0.30965256193E+01 0.32184314566E+01 0.34185333088E+01
 0.36950191557E+01 0.40167345392E+01 0.43363961535E+01 0.46836228556E+01 0.50117665271E+01
 0.51516915765E+01 0.50131660854E+01 0.46838265463E+01 0.43334993600E+01 0.40120305920E+01
 0.33460162837E+01 0.32629839048E+01 0.32212316530E+01 0.32082557048E+01 0.32079155509E+01
 0.32081932672E+01 0.32078932741E+01 0.32184314566E+01 0.32583112776E+01 0.33425259133E+01
 0.34727215481E+01 0.36334766574E+01 0.37962563260E+01 0.39283101317E+01 0.40019367959E+01
 0.40012017842E+01 0.39258587798E+01 0.37923451541E+01 0.36301038052E+01 0.34725213202E+01
 0.33460856303E+01 0.34188756739E+01 0.34958178925E+01 0.35554145995E+01 0.35788934841E+01
 0.35577676304E+01 0.34981385009E+01 0.34185333088E+01 0.33425259133E+01 0.32904216672E+01
 0.32732286449E+01 0.32895391979E+01 0.33255763762E+01 0.33599043138E+01 0.33730647993E+01
 0.33578739526E+01 0.33234205773E+01 0.32896047426E+01 0.32763964892E+01 0.32952132211E+01
 0.36914530084E+01 0.38981265552E+01 0.40573667816E+01 0.41436504178E+01 0.41448312091E+01
 0.40607844800E+01 0.39027974555E+01 0.36950191557E+01 0.34727215481E+01 0.32732286449E+01
 0.31230298337E+01 0.30294078217E+01 0.29821425642E+01 0.29640228214E+01 0.29634824272E+01
 0.29818015309E+01 0.30313402938E+01 0.31270715321E+01 0.32765573564E+01 0.34726095183E+01
 0.43745590973E+01 0.47364599562E+01 0.50508892850E+01 0.51779191833E+01 0.50498004800E+01
 0.47368744121E+01 0.43781706201E+01 0.40167345392E+01 0.36334766574E+01 0.32895391979E+01
 0.30294078217E+01 0.28625193523E+01 0.27744794505E+01 0.27475714614E+01 0.27749311602E+01
 0.28639910715E+01 0.30312880624E+01 0.32896047426E+01 0.36302050758E+01 0.40116032755E+01
 0.61916722686E+01 0.73722657110E+01 0.81314200159E+01 0.81288901210E+01 0.73667588243E+01
 0.61875154751E+01 0.50794672123E+01 0.43363961535E+01 0.37962563260E+01 0.33255763762E+01
 0.29821425642E+01 0.27744794505E+01 0.26808546282E+01 0.26812362060E+01 0.27751687078E+01
 0.29819574234E+01 0.33233969700E+01 0.37923451541E+01 0.43330200108E+01 0.50794954572E+01
 0.11789105219E+02 0.14184856833E+02 0.15094933436E+02 0.14182612852E+02 0.11784905028E+02
 0.87857746167E+01 0.62182602043E+01 0.46836228556E+01 0.39283101317E+01 0.33599043138E+01
 0.29640228214E+01 0.27475714614E+01 0.26812362060E+01 0.27479422398E+01 0.29634877455E+01
 0.33578927097E+01 0.39262672606E+01 0.46838265463E+01 0.62214991488E+01 0.87906046303E+01
 0.23101889561E+02 0.26269214554E+02 0.26272279187E+02 0.23107911991E+02 0.17797890265E+02
 0.12044980538E+02 0.75188591065E+01 0.50117665271E+01 0.40019367959E+01 0.33730647993E+01
 0.29634824272E+01 0.27749311602E+01 0.27751687078E+01 0.29634877455E+01 0.33722431911E+01
 0.40017574973E+01 0.50143349302E+01 0.75233603111E+01 0.12047244064E+02 0.17794853111E+02
 0.39953719190E+02 0.42535104168E+02 0.39963713918E+02 0.33004494855E+02 0.23732529380E+02
 0.14813180384E+02 0.84009656209E+01 0.51516915765E+01 0.40012017842E+01 0.33578739526E+01
 0.29818015309E+01 0.28639910715E+01 0.29819574234E+01 0.33578927097E+01 0.40017574973E+01
 0.51540291232E+01 0.84042090526E+01 0.14813164221E+02 0.23725378290E+02 0.32991987889E+02
 0.59583893992E+02 0.59587543031E+02 0.52678679439E+02 0.40853812183E+02 0.27446357206E+02
 0.15903001458E+02 0.84029255102E+01 0.50131660854E+01 0.39258587798E+01 0.33234205773E+01
 0.30313402938E+01 0.30312880624E+01 0.33233969700E+01 0.39262672606E+01 0.50143349302E+01
 0.84042090526E+01 0.15902345960E+02 0.27441620562E+02 0.40845263392E+02 0.52670068201E+02
 0.77215452550E+02 0.72678047386E+02 0.60389686084E+02 0.43847365496E+02 0.27441620562E+02
 0.14813164221E+02 0.75233603111E+01 0.46838265463E+01 0.37923451541E+01 0.32896047426E+01
 0.31270715321E+01 0.32896047426E+01 0.37923451541E+01 0.46838265463E+01 0.75233603111E+01
 0.14813164221E+02 0.27441620562E+02 0.43847365496E+02 0.60389686084E+02 0.72678047386E+02
 0.87706304618E+02 0.77603105203E+02 0.60385176947E+02 0.40841070607E+02 0.23722944571E+02
 0.12046875889E+02 0.62221900941E+01 0.43334993600E+01 0.36301038052E+01 0.32763964892E+01
 0.32765573564E+01 0.36302050758E+01 0.43330200108E+01 0.62214991488E+01 0.12047244064E+02
 0.23725378290E+02 0.40845263392E+02 0.60389686084E+02 0.77606394450E+02 0.87707483161E+02
 0.87708302834E+02 0.72677816091E+02 0.52667541886E+02 0.32988310070E+02 0.17792357602E+02
 0.87902743603E+01 0.50802577774E+01 0.40120305920E+01 0.34725213202E+01 0.32952132211E+01
 0.34726095183E+01 0.40116032755E+01 0.50794954572E+01 0.87906046303E+01 0.17794853111E+02
 0.32991987889E+02 0.52670068201E+02 0.72678047386E+02 0.87707483161E+02 0.93298558589E+02
 0.48882687436E+02 0.34902827920E+02 0.21575584714E+02 0.11787475934E+02 0.64467678759E+01
 0.44823177641E+01 0.37458367467E+01 0.33038273607E+01 0.31624559613E+01 0.33041349581E+01
 0.37456850324E+01 0.44809096442E+01 0.64442477999E+01 0.11785303284E+02 0.21575718257E+02
 0.34906094914E+02 0.48887682220E+02 0.59583893992E+02 0.63595403234E+02 0.59580170110E+02
 0.34902827920E+02 0.22989035797E+02 0.13309130071E+02 0.73736008318E+01 0.48279002044E+01
 0.39581156897E+01 0.34227456132E+01 0.31650680836E+01 0.31655199670E+01 0.34234715243E+01