   1   1   0   0
  0.9826000E+01  0.2404163E-09  0.2404163E-09  0.2404163E-09  0.5000000E-15
  1.000000000000000E-004
  CAR 
 fcc Ni                                  
     60.03804469     -1.56574724  301     10.89045894      1.00000000
     -1.566  0.0000E+00  0.0000E+00  0.0000E+00  0.0000E+00
     -1.360  0.0000E+00  0.0000E+00  0.0000E+00  0.0000E+00
     -1.155  0.0000E+00  0.0000E+00  0.0000E+00  0.0000E+00
     -0.950  0.0000E+00  0.0000E+00  0.0000E+00  0.0000E+00
     -0.744  0.0000E+00  0.0000E+00  0.0000E+00  0.0000E+00
     -0.539 -0.1855E-36 -0.1735E-35 -0.3809E-37 -0.3562E-36
     -0.334 -0.5999E-29 -0.4323E-28 -0.1232E-29 -0.8878E-29
     -0.128 -0.2317E-22 -0.1286E-21 -0.4757E-23 -0.2641E-22
      0.077 -0.1009E-16 -0.4432E-16 -0.2071E-17 -0.9100E-17
      0.282 -0.5505E-12 -0.1803E-11 -0.1130E-12 -0.3703E-12
      0.488 -0.3365E-08 -0.8431E-08 -0.6911E-09 -0.1732E-08
      0.693 -0.2244E-05 -0.4255E-05 -0.4615E-06 -0.8754E-06
      0.898 -0.1369E-03 -0.1867E-03 -0.2857E-04 -0.3920E-04
      1.104  0.1619E-03  0.5534E-03  0.4671E-05  0.7443E-04
      1.309  0.5781E-02  0.6503E-02  0.1192E-02  0.1410E-02
      1.514  0.1508E-01  0.1687E-01  0.4288E-02  0.4874E-02
      1.720  0.2230E-01  0.2193E-01  0.8867E-02  0.9377E-02
      1.925  0.2263E-01  0.2283E-01  0.1352E-01  0.1406E-01
      2.130  0.2830E-01  0.2922E-01  0.1933E-01  0.2007E-01
      2.336  0.4000E-01  0.4144E-01  0.2754E-01  0.2857E-01
      2.541  0.3914E-01  0.3635E-01  0.3558E-01  0.3604E-01
      2.747  0.2561E-01  0.2634E-01  0.4084E-01  0.4145E-01
      2.952  0.4830E-01  0.4966E-01  0.5075E-01  0.5165E-01
      3.157  0.7100E-01  0.7053E-01  0.6533E-01  0.6613E-01
      3.363  0.4120E-01  0.3812E-01  0.7380E-01  0.7396E-01
      3.568  0.4155E-01  0.4144E-01  0.8233E-01  0.8246E-01
      3.773  0.7695E-01  0.7460E-01  0.9813E-01  0.9778E-01
      3.979  0.6833E-01  0.6781E-01  0.1122E+00  0.1117E+00
      4.184  0.7340E-01  0.6708E-01  0.1272E+00  0.1255E+00
      4.389  0.8326E-01  0.8077E-01  0.1443E+00  0.1421E+00
      4.595  0.9825E-01  0.8658E-01  0.1645E+00  0.1598E+00
      4.800  0.8101E-01  0.7931E-01  0.1811E+00  0.1761E+00
      5.005  0.1262E+00  0.9380E-01  0.2070E+00  0.1954E+00
      5.211  0.1659E+00  0.1431E+00  0.2411E+00  0.2248E+00
      5.416  0.1675E+00  0.1286E+00  0.2755E+00  0.2512E+00
      5.621  0.3264E+00  0.1286E+00  0.3425E+00  0.2776E+00
      5.827  0.4995E+00  0.2213E+00  0.4451E+00  0.3230E+00
      6.032  0.4962E+00  0.3864E+00  0.5470E+00  0.4024E+00
      6.237  0.6124E+00  0.4126E+00  0.6727E+00  0.4871E+00
      6.443  0.7621E+00  0.4831E+00  0.8292E+00  0.5863E+00
      6.648  0.8857E+00  0.4805E+00  0.1011E+01  0.6850E+00
      6.853  0.8743E+00  0.5627E+00  0.1191E+01  0.8005E+00
      7.059  0.7570E+00  0.7509E+00  0.1346E+01  0.9547E+00
      7.264  0.7358E+00  0.7942E+00  0.1497E+01  0.1118E+01
      7.469  0.7393E+00  0.7628E+00  0.1649E+01  0.1274E+01
      7.675  0.9148E+00  0.7096E+00  0.1837E+01  0.1420E+01
      7.880  0.1055E+01  0.6936E+00  0.2054E+01  0.1563E+01
      8.086  0.1065E+01  0.7191E+00  0.2272E+01  0.1710E+01
      8.291  0.1343E+01  0.9193E+00  0.2548E+01  0.1899E+01
      8.496  0.1493E+01  0.1013E+01  0.2855E+01  0.2107E+01
      8.702  0.1168E+01  0.1060E+01  0.3094E+01  0.2325E+01
      8.907  0.8554E+00  0.1243E+01  0.3270E+01  0.2580E+01
      9.112  0.8893E+00  0.1267E+01  0.3453E+01  0.2840E+01
      9.318  0.1101E+01  0.1207E+01  0.3679E+01  0.3088E+01
      9.523  0.1185E+01  0.9326E+00  0.3922E+01  0.3279E+01
      9.728  0.1181E+01  0.8559E+00  0.4165E+01  0.3455E+01
      9.934  0.1042E+01  0.1023E+01  0.4379E+01  0.3665E+01
     10.139  0.1356E+01  0.1150E+01  0.4657E+01  0.3901E+01
     10.344  0.1901E+01  0.1070E+01  0.5047E+01  0.4121E+01
     10.550  0.9215E+00  0.9102E+00  0.5237E+01  0.4308E+01
     10.755  0.2305E+00  0.1012E+01  0.5284E+01  0.4516E+01
     10.960  0.1332E+00  0.1426E+01  0.5311E+01  0.4809E+01
     11.166  0.1103E+00  0.1539E+01  0.5334E+01  0.5125E+01
     11.371  0.2010E+00  0.7572E+00  0.5375E+01  0.5280E+01
     11.576  0.1604E+00  0.2078E+00  0.5408E+01  0.5323E+01
     11.782  0.1095E+00  0.9806E-01  0.5431E+01  0.5343E+01
     11.987  0.1134E+00  0.2128E+00  0.5454E+01  0.5387E+01
     12.192  0.1405E+00  0.1838E+00  0.5483E+01  0.5425E+01
     12.398  0.1535E+00  0.1075E+00  0.5514E+01  0.5447E+01
     12.603  0.1256E+00  0.1369E+00  0.5540E+01  0.5475E+01
     12.808  0.1092E+00  0.1629E+00  0.5563E+01  0.5508E+01
     13.014  0.1263E+00  0.1766E+00  0.5589E+01  0.5544E+01
     13.219  0.1857E+00  0.9858E-01  0.5627E+01  0.5565E+01
     13.425  0.6419E-01  0.1502E+00  0.5640E+01  0.5596E+01
     13.630  0.1074E+00  0.1690E+00  0.5662E+01  0.5630E+01
     13.835  0.1164E+00  0.8231E-01  0.5686E+01  0.5647E+01
     14.041  0.9093E-01  0.1160E+00  0.5704E+01  0.5671E+01
     14.246  0.1700E+00  0.1014E+00  0.5739E+01  0.5692E+01
     14.451  0.1233E+00  0.1677E+00  0.5765E+01  0.5726E+01
     14.657  0.1256E+00  0.1303E+00  0.5790E+01  0.5753E+01
     14.862  0.7040E-01  0.1155E+00  0.5805E+01  0.5777E+01
     15.067  0.2569E-01  0.1166E+00  0.5810E+01  0.5801E+01
     15.273  0.8550E-01  0.3704E-01  0.5828E+01  0.5808E+01
     15.478  0.1224E+00  0.6283E-01  0.5853E+01  0.5821E+01
     15.683  0.1269E+00  0.1211E+00  0.5879E+01  0.5846E+01
     15.889  0.1121E+00  0.1214E+00  0.5902E+01  0.5871E+01
     16.094  0.3965E-01  0.1256E+00  0.5910E+01  0.5897E+01
     16.299  0.1778E-01  0.6658E-01  0.5914E+01  0.5910E+01
     16.505  0.8520E-01  0.2313E-02  0.5931E+01  0.5911E+01
     16.710  0.5525E-01  0.7985E-01  0.5943E+01  0.5927E+01
     16.915  0.5116E-01  0.7171E-01  0.5953E+01  0.5942E+01
     17.121  0.7558E-01  0.4947E-01  0.5969E+01  0.5952E+01
     17.326  0.3890E-01  0.7208E-01  0.5977E+01  0.5967E+01
     17.531  0.8878E-01  0.4348E-01  0.5995E+01  0.5976E+01
     17.737  0.1445E+00  0.1747E-01  0.6025E+01  0.5980E+01
     17.942  0.9648E-01  0.1315E+00  0.6044E+01  0.6007E+01
     18.147  0.2012E+00  0.1255E+00  0.6086E+01  0.6032E+01
     18.353  0.2004E+00  0.1712E+00  0.6127E+01  0.6067E+01
     18.558  0.8535E-01  0.2263E+00  0.6144E+01  0.6114E+01
     18.764  0.1303E+00  0.1228E+00  0.6171E+01  0.6139E+01
     18.969  0.1084E+00  0.1237E+00  0.6193E+01  0.6165E+01
     19.174  0.1496E+00  0.1161E+00  0.6224E+01  0.6188E+01
     19.380  0.1339E+00  0.1401E+00  0.6252E+01  0.6217E+01
     19.585  0.1131E+00  0.1470E+00  0.6275E+01  0.6247E+01
     19.790  0.1339E+00  0.1244E+00  0.6302E+01  0.6273E+01
     19.996  0.7086E-01  0.1325E+00  0.6317E+01  0.6300E+01
     20.201  0.8818E-01  0.7857E-01  0.6335E+01  0.6316E+01
     20.406  0.1338E+00  0.8177E-01  0.6362E+01  0.6333E+01
     20.612  0.1167E+00  0.1301E+00  0.6386E+01  0.6360E+01
     20.817  0.8531E-01  0.1295E+00  0.6404E+01  0.6386E+01
     21.022  0.8961E-01  0.8182E-01  0.6422E+01  0.6403E+01
     21.228  0.1360E+00  0.1034E+00  0.6450E+01  0.6424E+01
     21.433  0.1624E+00  0.1285E+00  0.6484E+01  0.6451E+01
     21.638  0.1608E+00  0.1412E+00  0.6517E+01  0.6480E+01
     21.844  0.1123E+00  0.1821E+00  0.6540E+01  0.6517E+01
     22.049  0.1388E+00  0.1159E+00  0.6568E+01  0.6541E+01
     22.254  0.2447E+00  0.1428E+00  0.6618E+01  0.6570E+01
     22.460  0.1201E+00  0.2486E+00  0.6643E+01  0.6621E+01
     22.665  0.7860E-01  0.1104E+00  0.6659E+01  0.6644E+01
     22.870  0.1789E+00  0.9939E-01  0.6696E+01  0.6664E+01
     23.076  0.2396E+00  0.2006E+00  0.6745E+01  0.6706E+01
     23.281  0.1817E+00  0.2307E+00  0.6782E+01  0.6753E+01
     23.486  0.7656E-01  0.1599E+00  0.6798E+01  0.6786E+01
     23.692  0.2467E+00  0.8988E-01  0.6849E+01  0.6804E+01
     23.897  0.2537E+00  0.2964E+00  0.6901E+01  0.6865E+01
     24.102  0.1382E+00  0.2167E+00  0.6929E+01  0.6910E+01
     24.308  0.8893E-01  0.1149E+00  0.6948E+01  0.6933E+01
     24.513  0.1318E+00  0.1031E+00  0.6975E+01  0.6954E+01
     24.719  0.2163E+00  0.1827E+00  0.7019E+01  0.6992E+01
     24.924  0.2192E+00  0.2030E+00  0.7064E+01  0.7034E+01
     25.129  0.1926E+00  0.2361E+00  0.7104E+01  0.7082E+01
     25.335  0.1491E+00  0.1548E+00  0.7134E+01  0.7114E+01
     25.540  0.1358E+00  0.1541E+00  0.7162E+01  0.7145E+01
     25.745  0.2028E+00  0.1492E+00  0.7204E+01  0.7176E+01
     25.951  0.2651E+00  0.2452E+00  0.7258E+01  0.7226E+01
     26.156  0.2120E+00  0.2608E+00  0.7302E+01  0.7280E+01
     26.361  0.8844E-01  0.1573E+00  0.7320E+01  0.7312E+01
     26.567  0.1647E+00  0.1094E+00  0.7354E+01  0.7335E+01
     26.772  0.2584E+00  0.2087E+00  0.7407E+01  0.7378E+01
     26.977  0.3018E+00  0.3024E+00  0.7469E+01  0.7440E+01
     27.183  0.2431E+00  0.2713E+00  0.7519E+01  0.7495E+01
     27.388  0.1062E+00  0.1904E+00  0.7540E+01  0.7535E+01
     27.593  0.8164E-01  0.5793E-01  0.7557E+01  0.7546E+01
     27.799  0.2649E+00  0.1887E+00  0.7612E+01  0.7585E+01
     28.004  0.2726E+00  0.2858E+00  0.7668E+01  0.7644E+01
     28.209  0.2209E+00  0.2586E+00  0.7713E+01  0.7697E+01
     28.415  0.1294E+00  0.1559E+00  0.7740E+01  0.7729E+01
     28.620  0.1708E+00  0.1246E+00  0.7775E+01  0.7755E+01
     28.825  0.2102E+00  0.2294E+00  0.7818E+01  0.7802E+01
     29.031  0.1170E+00  0.1434E+00  0.7842E+01  0.7831E+01
     29.236  0.1877E+00  0.1467E+00  0.7880E+01  0.7861E+01
     29.441  0.2658E+00  0.2521E+00  0.7935E+01  0.7913E+01
     29.647  0.2204E+00  0.2493E+00  0.7980E+01  0.7964E+01
     29.852  0.1945E+00  0.2069E+00  0.8020E+01  0.8007E+01
     30.058  0.1307E+00  0.1416E+00  0.8047E+01  0.8036E+01
     30.263  0.1090E+00  0.1152E+00  0.8069E+01  0.8059E+01
     30.468  0.2274E+00  0.1808E+00  0.8116E+01  0.8097E+01
     30.674  0.1762E+00  0.2337E+00  0.8152E+01  0.8145E+01
     30.879  0.7044E-01  0.7603E-01  0.8167E+01  0.8160E+01
     31.084  0.1231E+00  0.1231E+00  0.8192E+01  0.8185E+01
     31.290  0.1465E+00  0.1171E+00  0.8222E+01  0.8210E+01
     31.495  0.2371E+00  0.2128E+00  0.8271E+01  0.8253E+01
     31.700  0.1956E+00  0.2278E+00  0.8311E+01  0.8300E+01
     31.906  0.1684E+00  0.1819E+00  0.8345E+01  0.8337E+01
     32.111  0.1264E+00  0.1407E+00  0.8371E+01  0.8366E+01
     32.316  0.1128E+00  0.9326E-01  0.8395E+01  0.8385E+01
     32.522  0.1215E+00  0.1324E+00  0.8420E+01  0.8413E+01
     32.727  0.2043E+00  0.1904E+00  0.8462E+01  0.8452E+01
     32.932  0.2020E+00  0.1998E+00  0.8503E+01  0.8493E+01
     33.138  0.1357E+00  0.1304E+00  0.8531E+01  0.8519E+01
     33.343  0.1409E+00  0.1711E+00  0.8560E+01  0.8555E+01
     33.548  0.1869E+00  0.1950E+00  0.8598E+01  0.8595E+01
     33.754  0.2066E+00  0.1701E+00  0.8641E+01  0.8630E+01
     33.959  0.2139E+00  0.2154E+00  0.8685E+01  0.8674E+01
     34.164  0.2047E+00  0.1974E+00  0.8727E+01  0.8714E+01
     34.370  0.2121E+00  0.2086E+00  0.8770E+01  0.8757E+01
     34.575  0.2449E+00  0.2553E+00  0.8820E+01  0.8810E+01
     34.780  0.2942E+00  0.3040E+00  0.8881E+01  0.8872E+01
     34.986  0.2392E+00  0.2226E+00  0.8930E+01  0.8918E+01
     35.191  0.1638E+00  0.1957E+00  0.8964E+01  0.8958E+01
     35.397  0.2403E+00  0.2163E+00  0.9013E+01  0.9002E+01
     35.602  0.2223E+00  0.2332E+00  0.9059E+01  0.9050E+01
     35.807  0.1433E+00  0.1838E+00  0.9088E+01  0.9088E+01
     36.013  0.2518E+00  0.1979E+00  0.9140E+01  0.9129E+01
     36.218  0.2462E+00  0.2435E+00  0.9190E+01  0.9179E+01
     36.423  0.3537E+00  0.3533E+00  0.9263E+01  0.9251E+01
     36.629  0.2751E+00  0.2915E+00  0.9319E+01  0.9311E+01
     36.834  0.2082E+00  0.1823E+00  0.9362E+01  0.9348E+01
     37.039  0.2621E+00  0.2704E+00  0.9416E+01  0.9404E+01
     37.245  0.1662E+00  0.1879E+00  0.9450E+01  0.9443E+01
     37.450  0.1323E+00  0.1431E+00  0.9477E+01  0.9472E+01
     37.655  0.2350E+00  0.1881E+00  0.9526E+01  0.9511E+01
     37.861  0.3402E+00  0.3533E+00  0.9595E+01  0.9583E+01
     38.066  0.2622E+00  0.2969E+00  0.9649E+01  0.9644E+01
     38.271  0.2589E+00  0.2003E+00  0.9702E+01  0.9685E+01
     38.477  0.2208E+00  0.2502E+00  0.9748E+01  0.9737E+01
     38.682  0.2494E+00  0.2564E+00  0.9799E+01  0.9789E+01
     38.887  0.7321E-01  0.1139E+00  0.9814E+01  0.9813E+01
     39.093  0.1389E+00  0.1031E+00  0.9842E+01  0.9834E+01
     39.298  0.1906E+00  0.2099E+00  0.9882E+01  0.9877E+01
     39.503  0.8697E-01  0.9788E-01  0.9899E+01  0.9897E+01
     39.709  0.1417E+00  0.1402E+00  0.9929E+01  0.9926E+01
     39.914  0.1659E+00  0.1470E+00  0.9963E+01  0.9956E+01
     40.119  0.2310E+00  0.1861E+00  0.1001E+02  0.9994E+01
     40.325  0.1570E+00  0.1878E+00  0.1004E+02  0.1003E+02
     40.530  0.1587E+00  0.1387E+00  0.1007E+02  0.1006E+02
     40.736  0.1728E+00  0.1929E+00  0.1011E+02  0.1010E+02
     40.941  0.9456E-01  0.1108E+00  0.1013E+02  0.1012E+02
     41.146  0.4488E-01  0.5397E-01  0.1014E+02  0.1013E+02
     41.352  0.1995E+00  0.1597E+00  0.1018E+02  0.1017E+02
     41.557  0.2403E+00  0.2821E+00  0.1023E+02  0.1023E+02
     41.762  0.1466E+00  0.1404E+00  0.1026E+02  0.1025E+02
     41.968  0.2000E+00  0.1631E+00  0.1030E+02  0.1029E+02
     42.173  0.1857E+00  0.2268E+00  0.1034E+02  0.1033E+02
     42.378  0.1760E+00  0.1736E+00  0.1037E+02  0.1037E+02
     42.584  0.2240E+00  0.1538E+00  0.1042E+02  0.1040E+02
     42.789  0.3615E+00  0.3533E+00  0.1050E+02  0.1047E+02
     42.994  0.3894E+00  0.4254E+00  0.1057E+02  0.1056E+02
     43.200  0.2760E+00  0.2574E+00  0.1063E+02  0.1061E+02
     43.405  0.3401E+00  0.3711E+00  0.1070E+02  0.1069E+02
     43.610  0.2740E+00  0.3325E+00  0.1076E+02  0.1076E+02
     43.816  0.1957E+00  0.1501E+00  0.1080E+02  0.1079E+02
     44.021  0.2653E+00  0.2255E+00  0.1085E+02  0.1084E+02
     44.226  0.1611E+00  0.2065E+00  0.1089E+02  0.1088E+02
     44.432  0.2501E+00  0.2598E+00  0.1094E+02  0.1093E+02
     44.637  0.1896E+00  0.2105E+00  0.1098E+02  0.1097E+02
     44.842  0.1066E+00  0.1024E+00  0.1100E+02  0.1100E+02
     45.048  0.1311E+00  0.1107E+00  0.1102E+02  0.1102E+02
     45.253  0.2512E+00  0.2382E+00  0.1108E+02  0.1107E+02
     45.458  0.2387E+00  0.2606E+00  0.1113E+02  0.1112E+02
     45.664  0.1594E+00  0.1591E+00  0.1116E+02  0.1115E+02
     45.869  0.2258E+00  0.2357E+00  0.1120E+02  0.1120E+02
     46.075  0.1982E+00  0.2061E+00  0.1125E+02  0.1124E+02
     46.280  0.8925E-01  0.7350E-01  0.1126E+02  0.1126E+02
     46.485  0.9163E-01  0.1026E+00  0.1128E+02  0.1128E+02
     46.691  0.2490E+00  0.2086E+00  0.1133E+02  0.1132E+02
     46.896  0.1739E+00  0.1971E+00  0.1137E+02  0.1136E+02
     47.101  0.8911E-01  0.1025E+00  0.1139E+02  0.1138E+02
     47.307  0.5368E-01  0.6268E-01  0.1140E+02  0.1140E+02
     47.512  0.1730E+00  0.1124E+00  0.1143E+02  0.1142E+02
     47.717  0.1640E+00  0.2200E+00  0.1147E+02  0.1147E+02
     47.923  0.2304E+00  0.2140E+00  0.1151E+02  0.1151E+02
     48.128  0.2982E+00  0.3109E+00  0.1158E+02  0.1157E+02
     48.333  0.1892E+00  0.1869E+00  0.1161E+02  0.1161E+02
     48.539  0.6314E-01  0.6280E-01  0.1163E+02  0.1163E+02
     48.744  0.5348E-02  0.1574E-01  0.1163E+02  0.1163E+02
     48.949  0.1871E+00  0.1359E+00  0.1167E+02  0.1166E+02
     49.155  0.1869E+00  0.2119E+00  0.1171E+02  0.1170E+02
     49.360  0.7615E-01  0.1123E+00  0.1172E+02  0.1172E+02
     49.565  0.1615E+00  0.1608E+00  0.1175E+02  0.1176E+02
     49.771  0.1065E+00  0.8472E-01  0.1178E+02  0.1177E+02
     49.976  0.4709E-01  0.5632E-01  0.1179E+02  0.1178E+02
     50.181  0.4973E-01  0.6816E-01  0.1180E+02  0.1180E+02
     50.387  0.8010E-01  0.6023E-01  0.1181E+02  0.1181E+02
     50.592  0.7351E-01  0.7397E-01  0.1183E+02  0.1183E+02
     50.797  0.7540E-01  0.8528E-01  0.1184E+02  0.1184E+02
     51.003  0.5841E-01  0.5659E-01  0.1186E+02  0.1186E+02
     51.208  0.2860E-01  0.2622E-01  0.1186E+02  0.1186E+02
     51.414  0.1029E+00  0.9200E-01  0.1188E+02  0.1188E+02
     51.619  0.4895E-01  0.7041E-01  0.1189E+02  0.1189E+02
     51.824  0.8369E-01  0.8282E-01  0.1191E+02  0.1191E+02
     52.030  0.3393E-01  0.2515E-01  0.1192E+02  0.1192E+02
     52.235 -0.1548E-02  0.7635E-02  0.1192E+02  0.1192E+02
     52.440  0.1990E-01  0.1817E-01  0.1192E+02  0.1192E+02
     52.646  0.2300E-01  0.1586E-01  0.1193E+02  0.1193E+02
     52.851  0.4447E-01  0.4613E-01  0.1193E+02  0.1193E+02
     53.056  0.2996E-01  0.2875E-01  0.1194E+02  0.1194E+02
     53.262 -0.1412E-02 -0.1573E-02  0.1194E+02  0.1194E+02
     53.467 -0.7463E-03 -0.7427E-03  0.1194E+02  0.1194E+02
     53.672  0.4385E-03  0.6836E-03  0.1194E+02  0.1194E+02
     53.878  0.1825E-01  0.1861E-01  0.1194E+02  0.1194E+02
     54.083  0.1516E-01  0.1562E-01  0.1195E+02  0.1195E+02
     54.288  0.4060E-01  0.4084E-01  0.1196E+02  0.1196E+02
     54.494  0.2164E-01  0.2798E-01  0.1196E+02  0.1196E+02
     54.699  0.4142E-01  0.3900E-01  0.1197E+02  0.1197E+02
     54.904  0.1107E-01  0.7226E-02  0.1197E+02  0.1197E+02
     55.110  0.3785E-01  0.4118E-01  0.1198E+02  0.1198E+02
     55.315  0.2054E-01  0.1572E-01  0.1198E+02  0.1198E+02
     55.520 -0.1899E-02 -0.1835E-02  0.1198E+02  0.1198E+02
     55.726 -0.5409E-03 -0.5228E-03  0.1198E+02  0.1198E+02
     55.931  0.5342E-03  0.8950E-03  0.1198E+02  0.1198E+02
     56.136  0.1949E-01  0.2012E-01  0.1199E+02  0.1199E+02
     56.342  0.1060E-01  0.9641E-02  0.1199E+02  0.1199E+02
     56.547 -0.1321E-02 -0.1328E-02  0.1199E+02  0.1199E+02
     56.753  0.4692E-03  0.5109E-03  0.1199E+02  0.1199E+02
     56.958  0.1875E-01  0.1879E-01  0.1199E+02  0.1199E+02
     57.163  0.1738E-01  0.1754E-01  0.1200E+02  0.1200E+02
     57.369  0.2054E-01  0.2044E-01  0.1200E+02  0.1200E+02
     57.574  0.2159E-02  0.2011E-02  0.1200E+02  0.1200E+02
     57.779 -0.5552E-03 -0.5407E-03  0.1200E+02  0.1200E+02
     57.985 -0.1276E-04 -0.1203E-04  0.1200E+02  0.1200E+02
     58.190 -0.2529E-07 -0.2324E-07  0.1200E+02  0.1200E+02
     58.395 -0.5410E-11 -0.4847E-11  0.1200E+02  0.1200E+02
     58.601 -0.1298E-15 -0.1168E-15  0.1200E+02  0.1200E+02
     58.806  0.0000E+00  0.0000E+00  0.1200E+02  0.1200E+02
     59.011  0.0000E+00  0.0000E+00  0.1200E+02  0.1200E+02
     59.217  0.0000E+00  0.0000E+00  0.1200E+02  0.1200E+02
     59.422  0.0000E+00  0.0000E+00  0.1200E+02  0.1200E+02
     59.627  0.0000E+00  0.0000E+00  0.1200E+02  0.1200E+02
     59.833  0.0000E+00  0.0000E+00  0.1200E+02  0.1200E+02
     60.038  0.0000E+00  0.0000E+00  0.1200E+02  0.1200E+02
