    1    1    1    2
  0.9826000E+01  0.2404163E-09  0.2404163E-09  0.2404163E-09  0.5000000E-15
  1.000000000000000E-004
  CAR 
 fcc Ni                                  
     10    110     12
 
  0.5000000E-01  0.5000000E-01  0.5000000E-01  0.2000000E-02
    1        1.259617      1.234425   1.000000   1.000000
    2        8.163931      8.871120   1.000000   1.000000
    3        8.219617      8.931214   1.000000   1.000000
    4        8.219617      8.931214   1.000000   1.000000
    5        9.517835     10.133556   1.000000   1.000001
    6        9.517835     10.133556   1.000000   1.000001
    7       35.282386     35.166799   0.000000   0.000000
    8       38.737576     38.727850   0.000000   0.000000
    9       39.959346     39.953138   0.000000   0.000000
   10       39.959346     39.953138   0.000000   0.000000
   11       43.949314     44.021925   0.000000   0.000000
   12       43.949318     44.021942   0.000000   0.000000
 
  0.1500000E+00  0.5000000E-01  0.5000000E-01  0.6000000E-02
    1        1.812668      1.788885   1.000000   1.000000
    2        8.008828      8.698623   1.000000   1.000000
    3        8.338031      9.054107   1.000000   1.000000
    4        8.355178      9.064940   1.000000   1.000000
    5        9.403304     10.012060   1.000000   1.000000
    6        9.554318     10.173985   1.000000   1.000002
    7       33.401528     33.414755   0.000000   0.000000
    8       35.885900     35.872615   0.000000   0.000000
    9       38.678110     38.661425   0.000000   0.000000
   10       40.722380     40.718860   0.000000   0.000000
   11       43.412278     43.397021   0.000000   0.000000
   12       44.168355     44.227344   0.000000   0.000000
 
  0.2500000E+00  0.5000000E-01  0.5000000E-01  0.6000000E-02
    1        3.090021      3.080711   1.000000   1.000000
    2        7.788817      8.428719   1.000000   1.000000
    3        8.458956      9.138834   1.000000   1.000000
    4        8.493363      9.186826   1.000000   1.000000
    5        9.387978     10.021967   1.000000   1.000000
    6        9.692083     10.343807   1.000000   1.000384
    7       28.262842     28.378966   0.000000   0.000000
    8       34.715951     34.702801   0.000000   0.000000
    9       38.038209     38.030894   0.000000   0.000000
   10       40.278867     40.336938   0.000000   0.000000
   11       43.008471     42.985052   0.000000   0.000000
   12       43.588495     43.629945   0.000000   0.000000
 
  0.3500000E+00  0.5000000E-01  0.5000000E-01  0.6000000E-02
    1        4.630453      4.725173   1.000000   1.000000
    2        7.968404      8.454496   1.000000   1.000000
    3        8.357834      8.994103   1.000000   1.000000
    4        8.413548      9.053893   1.000000   1.000000
    5        9.719485     10.416175   1.000000   1.002017
    6       10.082571     10.773908   1.000000   0.912127
    7       23.176024     23.372556   0.000000   0.000000
    8       33.979700     33.949773   0.000000   0.000000
    9       36.908437     36.926685   0.000000   0.000000
   10       39.586349     39.697063   0.000000   0.000000
   11       41.169683     41.200462   0.000000   0.000000
   12       43.026862     43.039958   0.000000   0.000000
 
  0.4500000E+00  0.5000000E-01  0.5000000E-01  0.6000000E-02
    1        5.425436      5.765023   1.000000   1.000000
    2        8.201162      8.804892   1.000000   1.000000
    3        8.273032      8.889832   1.000000   1.000000
    4        9.128967      9.376099   1.000000   1.000000
    5       10.132270     10.865197   1.000001   0.605955
    6       10.664176     11.280808   1.033939  -0.009314
    7       18.973869     19.287010   0.000000   0.000000
    8       33.564105     33.491284   0.000000   0.000000
    9       36.259603     36.312718   0.000000   0.000000
   10       37.876546     37.971798   0.000000   0.000000
   11       40.736972     40.785871   0.000000   0.000000
   12       42.183945     42.217105   0.000000   0.000000
 
 -0.4500000E+00  0.5000000E-01  0.5000000E-01  0.6000000E-02
    1        5.533921      5.943624   1.000000   1.000000
    2        8.143866      8.740239   1.000000   1.000000
    3        8.237509      8.851056   1.000000   1.000000
    4        9.614740      9.919839   1.000000   1.000000
    5       10.324864     11.068507   1.000237  -0.009670
    6       11.147064     11.556359  -0.034975  -0.000013
    7       17.426580     17.827236   0.000000   0.000000
    8       33.562159     33.460467   0.000000   0.000000
    9       36.506593     36.593627   0.000000   0.000000
   10       36.594793     36.677702   0.000000   0.000000
   11       41.411242     41.461967   0.000000   0.000000
   12       41.451353     41.486701   0.000000   0.000000
 
 -0.3500000E+00  0.5000000E-01  0.5000000E-01  0.6000000E-02
    1        5.272892      5.538290   1.000000   1.000000
    2        8.230309      8.810787   1.000000   1.000000
    3        8.328658      8.955805   1.000000   1.000000
    4        8.657194      8.993350   1.000000   1.000000
    5       10.194306     10.921383   1.000005   0.370869
    6       10.277918     10.936420   1.000065   0.311102
    7       20.215905     20.483347   0.000000   0.000000
    8       34.044599     33.943213   0.000000   0.000000
    9       35.976176     36.067423   0.000000   0.000000
   10       37.914104     38.017904   0.000000   0.000000
   11       41.233379     41.255880   0.000000   0.000000
   12       42.757398     42.797197   0.000000   0.000000
 
 -0.2500000E+00  0.5000000E-01  0.5000000E-01  0.6000000E-02
    1        4.145970      4.185305   1.000000   1.000000
    2        7.802265      8.361747   1.000000   1.000000
    3        8.405135      9.049923   1.000000   1.000000
    4        8.465273      9.125179   1.000000   1.000000
    5        9.662266     10.336895   1.000000   1.000322
    6        9.860701     10.545476   1.000000   1.017475
    7       24.804863     24.972561   0.000000   0.000000
    8       34.919844     34.833223   0.000000   0.000000
    9       36.199235     36.290926   0.000000   0.000000
   10       39.833622     39.937986   0.000000   0.000000
   11       41.511463     41.506286   0.000000   0.000000
   12       44.704058     44.722458   0.000000   0.000000
 
 -0.1500000E+00  0.5000000E-01  0.5000000E-01  0.6000000E-02
    1        2.599824      2.582091   1.000000   1.000000
    2        7.840640      8.502633   1.000000   1.000000
    3        8.454364      9.154072   1.000000   1.000000
    4        8.465623      9.168163   1.000000   1.000000
    5        9.363529      9.984595   1.000000   1.000000
    6        9.610242     10.243728   1.000000   1.000024
    7       30.047334     30.136938   0.000000   0.000000
    8       35.834536     35.755054   0.000000   0.000000
    9       37.018271     37.094387   0.000000   0.000000
   10       40.741037     40.732158   0.000000   0.000000
   11       42.374119     42.411546   0.000000   0.000000
   12       46.328623     46.305762   0.000000   0.000000
 
 -0.5000000E-01  0.5000000E-01  0.5000000E-01  0.6000000E-02
    1        1.538762      1.514050   1.000000   1.000000
    2        8.064240      8.763232   1.000000   1.000000
    3        8.296832      9.010127   1.000000   1.000000
    4        8.301075      9.014167   1.000000   1.000000
    5        9.423541     10.033178   1.000000   1.000000
    6        9.561852     10.179438   1.000000   1.000003
    7       34.623705     34.567260   0.000000   0.000000
    8       37.281108     37.260548   0.000000   0.000000
    9       38.340497     38.383318   0.000000   0.000000
   10       39.830373     39.806046   0.000000   0.000000
   11       44.000350     44.053124   0.000000   0.000000
   12       45.479472     45.492012   0.000000   0.000000
 
  0.1500000E+00  0.1500000E+00  0.5000000E-01  0.6000000E-02
    1        2.083187      2.060133   1.000000   1.000000
    2        7.865424      8.549578   1.000000   1.000000
    3        8.456222      9.171585   1.000000   1.000000
    4        8.460276      9.176651   1.000000   1.000000
    5        9.250881      9.850198   1.000000   1.000000
    6        9.643197     10.264774   1.000000   1.000045
    7       33.591681     33.605147   0.000000   0.000000
    8       35.840784     35.814542   0.000000   0.000000
    9       36.384904     36.454428   0.000000   0.000000
   10       38.367626     38.342734   0.000000   0.000000
   11       44.870132     44.985815   0.000000   0.000000
   12       46.152772     46.259616   0.000000   0.000000
 
  0.2500000E+00  0.1500000E+00  0.5000000E-01  0.1200000E-01
    1        3.105142      3.091186   1.000000   1.000000
    2        7.605742      8.263083   1.000000   1.000000
    3        8.542093      9.208995   1.000000   1.000000
    4        8.688100      9.407272   1.000000   1.000000
    5        9.186646      9.804942   1.000000   1.000000
    6        9.794645     10.437984   1.000000   1.003132
    7       30.437059     30.525747   0.000000   0.000000
    8       32.724004     32.770940   0.000000   0.000000
    9       36.555018     36.553488   0.000000   0.000000
   10       38.079555     38.073161   0.000000   0.000000
   11       43.119996     43.314722   0.000000   0.000000
   12       45.938644     45.918152   0.000000   0.000000
 
  0.3500000E+00  0.1500000E+00  0.5000000E-01  0.1200000E-01
    1        4.585268      4.631190   1.000000   1.000000
    2        7.484444      8.073755   1.000000   1.000000
    3        8.298709      8.910840   1.000000   1.000000
    4        8.716439      9.382957   1.000000   1.000000
    5        9.657894     10.324337   1.000000   1.000233
    6       10.204741     10.883263   1.000007   0.530427
    7       25.193069     25.349727   0.000000   0.000000
    8       31.870606     31.922083   0.000000   0.000000
    9       34.976812     34.992933   0.000000   0.000000
   10       37.753065     37.825649   0.000000   0.000000
   11       44.383806     44.433371   0.000000   0.000000
   12       44.497719     44.506511   0.000000   0.000000
 
  0.4500000E+00  0.1500000E+00  0.5000000E-01  0.1200000E-01
    1        5.645832      5.925319   1.000000   1.000000
    2        7.864154      8.284890   1.000000   1.000000
    3        8.150452      8.742415   1.000000   1.000000
    4        8.586275      9.216465   1.000000   1.000000
    5       10.172957     10.892175   1.000002   0.492741
    6       11.199889     11.758035  -0.025510  -0.000000
    7       20.534052     20.779236   0.000000   0.000000
    8       31.512889     31.539859   0.000000   0.000000
    9       33.435212     33.504493   0.000000   0.000000
   10       36.734105     36.789473   0.000000   0.000000
   11       43.412242     43.432150   0.000000   0.000000
   12       45.877881     45.877979   0.000000   0.000000
 
 -0.4500000E+00  0.1500000E+00  0.5000000E-01  0.1200000E-01
    1        5.879480      6.309626   1.000000   1.000000
    2        7.851632      8.349109   1.000000   1.000000
    3        8.483000      9.097455   1.000000   1.000000
    4        8.682074      9.150050   1.000000   1.000000
    5       10.290139     11.036871   1.000093   0.029430
    6       12.663522     12.991093  -0.000000  -0.000000
    7       17.537905     17.913125   0.000000   0.000000
    8       31.051831     31.072029   0.000000   0.000000
    9       33.060679     33.153661   0.000000   0.000000
   10       36.454902     36.477079   0.000000   0.000000
   11       42.747077     42.788136   0.000000   0.000000
   12       45.505265     45.506472   0.000000   0.000000
 
 -0.3500000E+00  0.1500000E+00  0.5000000E-01  0.1200000E-01
    1        5.796670      6.153156   1.000000   1.000000
    2        7.939917      8.429070   1.000000   1.000000
    3        8.360259      8.844115   1.000000   1.000000
    4        8.530344      9.139226   1.000000   1.000000
    5       10.066293     10.798715   1.000000   0.846589
    6       11.827291     12.320169  -0.000000  -0.000000
    7       19.248257     19.536586   0.000000   0.000000
    8       30.452259     30.504537   0.000000   0.000000
    9       34.149717     34.201678   0.000000   0.000000
   10       37.261629     37.290505   0.000000   0.000000
   11       42.337171     42.381025   0.000000   0.000000
   12       45.161979     45.164132   0.000000   0.000000
 
 -0.2500000E+00  0.1500000E+00  0.5000000E-01  0.1200000E-01
    1        5.063762      5.163913   1.000000   1.000000
    2        7.634048      8.175324   1.000000   1.000000
    3        8.194238      8.799390   1.000000   1.000000
    4        8.657664      9.296657   1.000000   1.000000
    5        9.578471     10.272653   1.000000   1.000056
    6       10.644756     11.307459   1.035456  -0.006017
    7       23.562284     23.746802   0.000000   0.000000
    8       30.396187     30.465509   0.000000   0.000000
    9       35.944437     35.956719   0.000000   0.000000
   10       39.038729     39.091807   0.000000   0.000000
   11       42.214627     42.231536   0.000000   0.000000
   12       44.408140     44.419776   0.000000   0.000000
 
 -0.1500000E+00  0.1500000E+00  0.5000000E-01  0.1200000E-01
    1        3.579758      3.575278   1.000000   1.000000
    2        7.597988      8.241564   1.000000   1.000000
    3        8.440335      9.086192   1.000000   1.000000
    4        8.718817      9.432966   1.000000   1.000000
    5        9.181961      9.796820   1.000000   1.000000
    6        9.979975     10.646468   1.000000   1.035454
    7       28.655490     28.769304   0.000000   0.000000
    8       31.019672     31.085319   0.000000   0.000000
    9       38.164144     38.149657   0.000000   0.000000
   10       39.741093     39.720221   0.000000   0.000000
   11       43.161446     43.159586   0.000000   0.000000
   12       43.954815     44.076380   0.000000   0.000000
 
 -0.5000000E-01  0.1500000E+00  0.5000000E-01  0.1200000E-01
    1        2.346309      2.325214   1.000000   1.000000
    2        7.847941      8.523264   1.000000   1.000000
    3        8.456543      9.157066   1.000000   1.000000
    4        8.473072      9.191701   1.000000   1.000000
    5        9.279189      9.883479   1.000000   1.000000
    6        9.644670     10.273982   1.000000   1.000058
    7       31.930337     31.989800   0.000000   0.000000
    8       34.284988     34.302060   0.000000   0.000000
    9       37.948837     37.934963   0.000000   0.000000
   10       40.132270     40.098790   0.000000   0.000000
   11       43.379840     43.424119   0.000000   0.000000
   12       45.331870     45.338226   0.000000   0.000000
 
  0.2500000E+00  0.2500000E+00  0.5000000E-01  0.6000000E-02
    1        3.792087      3.791216   1.000000   1.000000
    2        7.287430      7.931099   1.000000   1.000000
    3        8.713881      9.297910   1.000000   1.000000
    4        8.977949      9.707782   1.000000   1.000000
    5        9.160358      9.849638   1.000000   1.000000
    6        9.887636     10.522814   1.000000   1.013006
    7       30.914717     30.997147   0.000000   0.000000
    8       32.527016     32.609868   0.000000   0.000000
    9       33.315893     33.314302   0.000000   0.000000
   10       34.620756     34.659334   0.000000   0.000000
   11       40.083466     40.288238   0.000000   0.000000
   12       50.001960     49.947593   0.000000   0.000000
 
  0.3500000E+00  0.2500000E+00  0.5000000E-01  0.1200000E-01
    1        4.923551      4.981705   1.000000   1.000000
    2        7.026986      7.644822   1.000000   1.000000
    3        8.456208      9.013834   1.000000   1.000000
    4        9.261810      9.973246   1.000000   1.000000
    5        9.698660     10.345924   1.000000   1.000404
    6       10.227681     10.898749   1.000015   0.464955
    7       27.687161     27.798998   0.000000   0.000000
    8       29.761277     29.836233   0.000000   0.000000
    9       31.692852     31.760356   0.000000   0.000000
   10       35.310117     35.362659   0.000000   0.000000
   11       40.005191     40.154436   0.000000   0.000000
   12       49.567699     49.538480   0.000000   0.000000
 
  0.4500000E+00  0.2500000E+00  0.5000000E-01  0.1200000E-01
    1        5.944568      6.175157   1.000000   1.000000
    2        7.019631      7.562507   1.000000   1.000000
    3        8.161183      8.716762   1.000000   1.000000
    4        9.181367      9.838750   1.000000   1.000000
    5       10.237925     10.957756   1.000020   0.232328
    6       11.587365     12.112831  -0.000005  -0.000000
    7       22.797355     22.968456   0.000000   0.000000
    8       28.795047     28.873100   0.000000   0.000000
    9       29.922934     30.018042   0.000000   0.000000
   10       35.492996     35.555152   0.000000   0.000000
   11       43.336880     43.425117   0.000000   0.000000
   12       48.077895     48.085819   0.000000   0.000000
 
 -0.4500000E+00  0.2500000E+00  0.5000000E-01  0.1200000E-01
    1        6.372930      6.820800   1.000000   1.000000
    2        7.212816      7.628114   1.000000   1.000000
    3        8.110714      8.681283   1.000000   1.000000
    4        9.030476      9.659289   1.000000   1.000000
    5       10.308220     11.064324   1.000152  -0.005719
    6       13.983211     14.316143  -0.000000  -0.000000
    7       18.719267     18.986279   0.000000   0.000000
    8       27.140575     27.247355   0.000000   0.000000
    9       30.240346     30.326476   0.000000   0.000000
   10       35.585353     35.628475   0.000000   0.000000
   11       45.881190     45.890685   0.000000   0.000000
   12       48.958640     49.033705   0.000000   0.000000
 
 -0.3500000E+00  0.2500000E+00  0.5000000E-01  0.1200000E-01
    1        6.511633      6.960601   1.000000   1.000000
    2        7.379241      7.795291   1.000000   1.000000
    3        7.966968      8.526146   1.000000   1.000000
    4        8.961298      9.572080   1.000000   1.000000
    5       10.026518     10.784957   1.000000   0.884832
    6       14.143261     14.488619  -0.000000  -0.000000
    7       18.734616     19.014270   0.000000   0.000000
    8       25.945350     26.066258   0.000000   0.000000
    9       31.636557     31.717894   0.000000   0.000000
   10       36.308362     36.334949   0.000000   0.000000
   11       45.009909     45.012191   0.000000   0.000000
   12       48.993988     48.973407   0.000000   0.000000
 
 -0.2500000E+00  0.2500000E+00  0.5000000E-01  0.1200000E-01
    1        6.209979      6.415756   1.000000   1.000000
    2        7.450069      8.014077   1.000000   1.000000
    3        7.753108      8.299318   1.000000   1.000000
    4        9.029947      9.620928   1.000000   1.000000
    5        9.521720     10.275253   1.000000   1.000061
    6       12.087319     12.640843  -0.000000  -0.000000
    7       22.802444     22.996170   0.000000   0.000000
    8       25.554412     25.678470   0.000000   0.000000
    9       33.687922     33.751012   0.000000   0.000000
   10       37.937364     37.966573   0.000000   0.000000
   11       43.515335     43.484864   0.000000   0.000000
   12       47.842751     47.838559   0.000000   0.000000
 
 -0.1500000E+00  0.2500000E+00  0.5000000E-01  0.1200000E-01
    1        5.010313      5.065290   1.000000   1.000000
    2        7.431372      8.039785   1.000000   1.000000
    3        8.167637      8.759977   1.000000   1.000000
    4        8.927842      9.561888   1.000000   1.000000
    5        9.244299      9.941902   1.000000   1.000000
    6       10.738862     11.402243   0.978504  -0.000886
    7       25.574025     25.730187   0.000000   0.000000
    8       28.036766     28.135882   0.000000   0.000000
    9       36.060560     36.089396   0.000000   0.000000
   10       40.031497     40.064675   0.000000   0.000000
   11       41.602453     41.577278   0.000000   0.000000
   12       45.730547     45.777146   0.000000   0.000000
 
 -0.5000000E-01  0.2500000E+00  0.5000000E-01  0.1200000E-01
    1        3.777441      3.786127   1.000000   1.000000
    2        7.666097      8.281706   1.000000   1.000000
    3        8.430908      9.078407   1.000000   1.000000
    4        8.574305      9.251323   1.000000   1.000000
    5        9.417170     10.072068   1.000000   1.000000
    6        9.913982     10.585212   1.000000   1.026468
    7       26.641996     26.780997   0.000000   0.000000
    8       33.270737     33.297041   0.000000   0.000000
    9       36.937167     36.932235   0.000000   0.000000
   10       40.237537     40.295682   0.000000   0.000000
   11       42.151799     42.163027   0.000000   0.000000
   12       44.155289     44.182758   0.000000   0.000000
 
  0.3500000E+00  0.3500000E+00  0.5000000E-01  0.6000000E-02
    1        5.381450      5.537802   1.000000   1.000000
    2        6.679764      7.284562   1.000000   1.000000
    3        9.150323      9.598960   1.000000   1.000000
    4        9.652632     10.395236   1.000000   1.001288
    5       10.059707     10.703470   1.000000   1.016992
    6       10.163881     10.828162   1.000002   0.749958
    7       27.917340     28.000952   0.000000   0.000000
    8       28.579071     28.675471   0.000000   0.000000
    9       29.335585     29.398374   0.000000   0.000000
   10       33.114037     33.214543   0.000000   0.000000
   11       37.571730     37.724702   0.000000   0.000000
   12       54.610953     54.539531   0.000000   0.000000
 
  0.4500000E+00  0.3500000E+00  0.5000000E-01  0.1200000E-01
    1        5.803028      6.079202   1.000000   1.000000
    2        6.523585      7.110696   1.000000   1.000000
    3        9.092588      9.632733   1.000000   1.000000
    4        9.900519     10.587909   1.000000   1.027079
    5       10.250467     10.970266   1.000029   0.190270
    6       11.730702     12.164984  -0.000000  -0.000000
    7       25.238914     25.359341   0.000000   0.000000
    8       25.948689     26.073613   0.000000   0.000000
    9       27.699250     27.768009   0.000000   0.000000
   10       34.191094     34.278832   0.000000   0.000000
   11       38.582091     38.713229   0.000000   0.000000
   12       52.850557     52.844982   0.000000   0.000000
 
 -0.4500000E+00  0.3500000E+00  0.5000000E-01  0.1200000E-01
    1        6.199074      6.572415   1.000000   1.000000
    2        6.630056      7.176558   1.000000   1.000000
    3        8.670814      9.236703   1.000000   1.000000
    4        9.699014     10.338929   1.000000   1.000339
    5       10.362639     11.140861   1.000608  -0.035347
    6       14.489205     14.785116  -0.000000  -0.000000
    7       21.166556     21.326625   0.000000   0.000000
    8       23.691836     23.863606   0.000000   0.000000
    9       27.985824     28.055659   0.000000   0.000000
   10       34.769366     34.848719   0.000000   0.000000
   11       42.629970     42.729103   0.000000   0.000000
   12       50.843154     50.837307   0.000000   0.000000
 
 -0.3500000E+00  0.3500000E+00  0.5000000E-01  0.1200000E-01
    1        6.640166      7.104048   1.000000   1.000000
    2        6.882640      7.339281   1.000000   1.000000
    3        8.127209      8.699369   1.000000   1.000000
    4        9.474960     10.076964   1.000000   1.000000
    5       10.126434     10.921519   1.000000   0.370315
    6       17.037213     17.271095   0.000000   0.000000
    7       18.167219     18.402866   0.000000   0.000000
    8       22.527662     22.714431   0.000000   0.000000
    9       29.323336     29.404812   0.000000   0.000000
   10       35.296763     35.353585   0.000000   0.000000
   11       47.899251     47.964052   0.000000   0.000000
   12       48.857591     48.852611   0.000000   0.000000
 
 -0.2500000E+00  0.3500000E+00  0.5000000E-01  0.1200000E-01
    1        6.786321      7.193503   1.000000   1.000000
    2        7.257863      7.702713   1.000000   1.000000
    3        7.682392      8.256019   1.000000   1.000000
    4        9.188842      9.779620   1.000000   1.000000
    5        9.841743     10.620322   1.000000   1.033411
    6       14.254768     14.629563  -0.000000  -0.000000
    7       20.299073     20.521550   0.000000   0.000000
    8       23.703487     23.855440   0.000000   0.000000
    9       31.404519     31.487806   0.000000   0.000000
   10       36.311650     36.344818   0.000000   0.000000
   11       45.951682     45.923917   0.000000   0.000000
   12       50.164894     50.130280   0.000000   0.000000
 
 -0.1500000E+00  0.3500000E+00  0.5000000E-01  0.1200000E-01
    1        6.018090      6.306797   1.000000   1.000000
    2        7.753298      8.180228   1.000000   1.000000
    3        7.880697      8.483619   1.000000   1.000000
    4        8.767619      9.381784   1.000000   1.000000
    5        9.798492     10.530251   1.000000   1.014391
    6       12.009489     12.543081  -0.000000  -0.000000
    7       20.898050     21.129237   0.000000   0.000000
    8       27.917910     28.014809   0.000000   0.000000
    9       33.832507     33.889642   0.000000   0.000000
   10       37.680299     37.704427   0.000000   0.000000
   11       43.008993     43.021323   0.000000   0.000000
   12       46.566290     46.561787   0.000000   0.000000
 
 -0.5000000E-01  0.3500000E+00  0.5000000E-01  0.1200000E-01
    1        5.154757      5.333089   1.000000   1.000000
    2        8.051651      8.473857   1.000000   1.000000
    3        8.229892      8.852999   1.000000   1.000000
    4        8.454829      9.087760   1.000000   1.000000
    5        9.909906     10.610824   1.000000   1.031839
    6       10.466295     11.132456   1.005307  -0.035424
    7       21.756918     21.979986   0.000000   0.000000
    8       32.765222     32.772118   0.000000   0.000000
    9       35.700960     35.717022   0.000000   0.000000
   10       38.253000     38.346406   0.000000   0.000000
   11       41.945602     41.969917   0.000000   0.000000
   12       43.831575     43.848789   0.000000   0.000000
 
  0.4500000E+00  0.4500000E+00  0.5000000E-01  0.6000000E-02
    1        5.658334      5.986124   1.000000   1.000000
    2        6.265188      6.845241   1.000000   1.000000
    3       10.106355     10.809162   1.000000   0.814510
    4       10.204756     10.883850   1.000007   0.527948
    5       10.390816     11.160984   1.001167  -0.033353
    6       12.336096     12.505533  -0.000000  -0.000000
    7       22.966419     23.167663   0.000000   0.000000
    8       26.473143     26.525357   0.000000   0.000000
    9       27.309486     27.340805   0.000000   0.000000
   10       32.662730     32.795973   0.000000   0.000000
   11       36.764080     36.910837   0.000000   0.000000
   12       56.914323     56.913597   0.000000   0.000000
 
 -0.4500000E+00  0.4500000E+00  0.5000000E-01  0.1200000E-01
    1        5.780223      6.136763   1.000000   1.000000
    2        6.275874      6.849082   1.000000   1.000000
    3        9.734418     10.387588   1.000000   1.001086
    4       10.191808     10.828931   1.000005   0.747192
    5       10.457150     11.272435   1.004501  -0.010579
    6       14.248286     14.399771  -0.000000  -0.000000
    7       21.385067     21.633190   0.000000   0.000000
    8       24.577968     24.660493   0.000000   0.000000
    9       26.506356     26.551661   0.000000   0.000000
   10       33.812313     33.917333   0.000000   0.000000
   11       38.153819     38.287446   0.000000   0.000000
   12       55.065345     55.043542   0.000000   0.000000
 
 -0.3500000E+00  0.4500000E+00  0.5000000E-01  0.1200000E-01
    1        6.165150      6.549811   1.000000   1.000000
    2        6.553082      7.104351   1.000000   1.000000
    3        8.855196      9.443440   1.000000   1.000000
    4        9.853844     10.473926   1.000000   1.006065
    5       10.341195     11.147539   1.000359  -0.034936
    6       15.893925     16.109488  -0.000000  -0.000000
    7       20.582923     20.753138   0.000000   0.000000
    8       22.042811     22.245024   0.000000   0.000000
    9       27.633590     27.698300   0.000000   0.000000
   10       34.658491     34.742654   0.000000   0.000000
   11       42.506279     42.608528   0.000000   0.000000
   12       51.804577     51.777361   0.000000   0.000000
 
 -0.2500000E+00  0.4500000E+00  0.5000000E-01  0.1200000E-01
    1        6.570205      7.053943   1.000000   1.000000
    2        6.981545      7.400414   1.000000   1.000000
    3        8.114587      8.685377   1.000000   1.000000
    4        9.282722      9.903140   1.000000   1.000000
    5       10.230596     11.003295   1.000016   0.096707
    6       15.716373     15.977374  -0.000000  -0.000000
    7       18.196250     18.461954   0.000000   0.000000
    8       24.539464     24.686358   0.000000   0.000000
    9       29.628232     29.710844   0.000000   0.000000
   10       35.386802     35.438050   0.000000   0.000000
   11       47.098741     47.110186   0.000000   0.000000
   12       48.847405     48.917551   0.000000   0.000000
 
 -0.1500000E+00  0.4500000E+00  0.5000000E-01  0.1200000E-01
    1        6.183265      6.633633   1.000000   1.000000
    2        7.598706      8.038434   1.000000   1.000000
    3        8.317972      8.845019   1.000000   1.000000
    4        8.702673      9.319709   1.000000   1.000000
    5       10.201618     10.952455   1.000006   0.251122
    6       13.662729     13.969088  -0.000000  -0.000000
    7       17.681627     18.032109   0.000000   0.000000
    8       28.563860     28.645460   0.000000   0.000000
    9       32.133400     32.213979   0.000000   0.000000
   10       36.330143     36.349360   0.000000   0.000000
   11       43.831708     43.858802   0.000000   0.000000
   12       47.381571     47.372673   0.000000   0.000000
 
 -0.5000000E-01  0.4500000E+00  0.5000000E-01  0.1200000E-01
    1        5.625291      6.019152   1.000000   1.000000
    2        8.066862      8.629819   1.000000   1.000000