       N       E                     dE             d eps       ncg     rms          rms(c)
DAV:   1     0.188416132461E+02    0.18842E+02   -0.29504E+03  5880   0.647E+02
DAV:   2    -0.529134000055E+01   -0.24133E+02   -0.22514E+02  5752   0.123E+02
DAV:   3    -0.569747627608E+01   -0.40614E+00   -0.40500E+00  6048   0.178E+01
DAV:   4    -0.569942097954E+01   -0.19447E-02   -0.19445E-02  5916   0.109E+00
DAV:   5    -0.569944559910E+01   -0.24620E-04   -0.24618E-04  5940   0.114E-01    0.152E+01
DAV:   6    -0.565715275374E+01    0.42293E-01   -0.11278E+01  6684   0.438E+01    0.534E+00
DAV:   7    -0.540718204883E+01    0.24997E+00   -0.20448E+00  6668   0.160E+01    0.196E+00
DAV:   8    -0.539310467401E+01    0.14077E-01   -0.16584E-02  5880   0.956E-01    0.100E+00
DAV:   9    -0.538957323759E+01    0.35314E-02   -0.28778E-03  6912   0.351E-01    0.404E-01
DAV:  10    -0.538907390710E+01    0.49933E-03   -0.57102E-04  4220   0.149E-01    0.507E-02
DAV:  11    -0.538908779568E+01   -0.13889E-04   -0.29681E-05  2856   0.449E-02
   1 F= -.53890878E+01 E0= -.53885772E+01  d E =-.153171E-02  mag=     0.6100
