 vasp.5.4.4.18Apr17-6-g9f103f2a35 (build Jul 01 2019 03:25:34) complex          
  
 executed on             LinuxIFC date 2020.07.09  19:35:22
 running on    4 total cores
 distrk:  each k-point on    4 cores,    1 groups
 distr:  one band on NCORES_PER_BAND=   1 cores,    4 groups


--------------------------------------------------------------------------------------------------------


 INCAR:
 POTCAR:    PAW_PBE Ni 02Aug2007                  
 POTCAR:    PAW_PBE Ni 02Aug2007                  
   VRHFIN =Ni:                                                                  
   LEXCH  = PE                                                                  
   EATOM  =  1077.6739 eV,   79.2068 Ry                                         
                                                                                
   TITEL  = PAW_PBE Ni 02Aug2007                                                
   LULTRA =        F    use ultrasoft PP ?                                      
   IUNSCR =        1    unscreen: 0-lin 1-nonlin 2-no                           
   RPACOR =    2.000    partial core radius                                     
   POMASS =   58.690; ZVAL   =   10.000    mass and valenz                      
   RCORE  =    2.300    outmost cutoff radius                                   
   RWIGS  =    2.430; RWIGS  =    1.286    wigner-seitz radius (au A)           
   ENMAX  =  269.532; ENMIN  =  202.149 eV                                      
   RCLOC  =    1.201    cutoff for local pot                                    
   LCOR   =        T    correct aug charges                                     
   LPAW   =        T    paw PP                                                  
   EAUG   =  544.565                                                            
   DEXC   =    0.000                                                            
   RMAX   =    2.357    core radius for proj-oper                               
   RAUG   =    1.300    factor for augmentation sphere                          
   RDEP   =    2.390    radius for radial grids                                 
   RDEPT  =    1.838    core radius for aug-charge                              
                                                                                
   Atomic configuration                                                         
    9 entries                                                                   
     n  l   j            E        occ.                                          
     1  0  0.50     -8206.4253   2.0000                                         
     2  0  0.50      -976.1748   2.0000                                         
     2  1  1.50      -839.0571   6.0000                                         
     3  0  0.50      -105.9991   2.0000                                         
     3  1  1.50       -66.4603   6.0000                                         
     3  2  2.50        -4.6458   9.0000                                         
     4  0  0.50        -4.4926   1.0000                                         
     4  1  1.50        -4.0817   0.0000                                         
     4  3  2.50        -1.3606   0.0000                                         
   Description                                                                  
     l       E           TYP  RCUT    TYP  RCUT                                 
     2     -4.6457903     23  2.300                                             
     2     -6.0063729     23  2.300                                             
     0     -4.4925590     23  2.300                                             
     0      5.0102601     23  2.300                                             
     1     -2.7211652     23  2.300                                             
     1     16.5183231     23  2.300                                             
  local pseudopotential read in
  partial core-charges read in
  partial kinetic energy density read in
  atomic valenz-charges read in
  non local Contribution for L=           2  read in
    real space projection operators read in
  non local Contribution for L=           2  read in
    real space projection operators read in
  non local Contribution for L=           0  read in
    real space projection operators read in
  non local Contribution for L=           0  read in
    real space projection operators read in
  non local Contribution for L=           1  read in
    real space projection operators read in
  non local Contribution for L=           1  read in
    real space projection operators read in
    PAW grid and wavefunctions read in
 
   number of l-projection  operators is LMAX  =           6
   number of lm-projection operators is LMMAX =          18
 
  PAW_PBE Ni 02Aug2007                  :
 energy of atom  1       EATOM=-1077.6739
 kinetic energy error for atom=    0.0378 (will be added to EATOM!!)
 
 
 POSCAR: FCC Ni Bulk                             
  positions in direct lattice
  No initial velocities read in
 exchange correlation table for  LEXCH =        8
   RHO(1)=    0.500       N(1)  =     2000
   RHO(2)=  100.500       N(2)  =     4000
 


--------------------------------------------------------------------------------------------------------


 ion  position               nearest neighbor table
   1  0.000  0.000  0.000-
 
  LATTYP: Found a face centered cubic cell.
 ALAT       =     3.4000000000
  
  Lattice vectors:
  
 A1 = (   0.0000000000,   1.7000000000,   1.7000000000)
 A2 = (   1.7000000000,   0.0000000000,   1.7000000000)
 A3 = (   1.7000000000,   1.7000000000,   0.0000000000)


Analysis of symmetry for initial positions (statically):
=====================================================================
 Subroutine PRICEL returns:
 Original cell was already a primitive cell.
 

 Routine SETGRP: Setting up the symmetry group for a 
 face centered cubic supercell.


 Subroutine GETGRP returns: Found 48 space group operations
 (whereof 48 operations were pure point group operations)
 out of a pool of 48 trial point group operations.


The static configuration has the point symmetry O_h .


Analysis of symmetry for dynamics (positions and initial velocities):
=====================================================================
 Subroutine PRICEL returns:
 Original cell was already a primitive cell.
 

 Routine SETGRP: Setting up the symmetry group for a 
 face centered cubic supercell.


 Subroutine GETGRP returns: Found 48 space group operations
 (whereof 48 operations were pure point group operations)
 out of a pool of 48 trial point group operations.


The dynamic configuration has the point symmetry O_h .


Analysis of structural, dynamic, and magnetic symmetry:
=====================================================================
 Subroutine PRICEL returns:
 Original cell was already a primitive cell.
 

 Routine SETGRP: Setting up the symmetry group for a 
 face centered cubic supercell.


 Subroutine GETGRP returns: Found 48 space group operations
 (whereof 48 operations were pure point group operations)
 out of a pool of 48 trial point group operations.


The magnetic configuration has the point symmetry O_h .


 Subroutine INISYM returns: Found 48 space group operations
 (whereof 48 operations are pure point group operations),
 and found     1 'primitive' translations

 
 
 KPOINTS: 10x10x10                                

Automatic generation of k-mesh.
Space group operators:
 irot       det(A)        alpha          n_x          n_y          n_z        tau_x        tau_y        tau_z
    1     1.000000     0.000000     1.000000     0.000000     0.000000     0.000000     0.000000     0.000000
    2    -1.000000     0.000000     1.000000     0.000000     0.000000     0.000000     0.000000     0.000000
    3     1.000000   120.000000    -0.577350    -0.577350    -0.577350     0.000000     0.000000     0.000000
    4    -1.000000   120.000000    -0.577350    -0.577350    -0.577350     0.000000     0.000000     0.000000
    5     1.000000   120.000000     0.577350     0.577350     0.577350     0.000000     0.000000     0.000000
    6    -1.000000   120.000000     0.577350     0.577350     0.577350     0.000000     0.000000     0.000000
    7     1.000000    90.000000     0.000000     0.000000    -1.000000     0.000000     0.000000     0.000000
    8    -1.000000    90.000000     0.000000     0.000000    -1.000000     0.000000     0.000000     0.000000
    9     1.000000   180.000000     0.000000     0.707107     0.707107     0.000000     0.000000     0.000000
   10    -1.000000   180.000000     0.000000     0.707107     0.707107     0.000000     0.000000     0.000000
   11     1.000000    90.000000     0.000000     1.000000     0.000000     0.000000     0.000000     0.000000
   12    -1.000000    90.000000     0.000000     1.000000     0.000000     0.000000     0.000000     0.000000
   13     1.000000   180.000000     0.000000     0.000000     1.000000     0.000000     0.000000     0.000000
   14    -1.000000   180.000000     0.000000     0.000000     1.000000     0.000000     0.000000     0.000000
   15     1.000000   120.000000    -0.577350     0.577350     0.577350     0.000000     0.000000     0.000000
   16    -1.000000   120.000000    -0.577350     0.577350     0.577350     0.000000     0.000000     0.000000
   17     1.000000   120.000000    -0.577350     0.577350    -0.577350     0.000000     0.000000     0.000000
   18    -1.000000   120.000000    -0.577350     0.577350    -0.577350     0.000000     0.000000     0.000000
   19     1.000000    90.000000     0.000000     0.000000     1.000000     0.000000     0.000000     0.000000
   20    -1.000000    90.000000     0.000000     0.000000     1.000000     0.000000     0.000000     0.000000
   21     1.000000    90.000000    -1.000000     0.000000     0.000000     0.000000     0.000000     0.000000
   22    -1.000000    90.000000    -1.000000     0.000000     0.000000     0.000000     0.000000     0.000000
   23     1.000000   180.000000     0.707107     0.000000     0.707107     0.000000     0.000000     0.000000
   24    -1.000000   180.000000     0.707107     0.000000     0.707107     0.000000     0.000000     0.000000
   25     1.000000   120.000000     0.577350    -0.577350     0.577350     0.000000     0.000000     0.000000
   26    -1.000000   120.000000     0.577350    -0.577350     0.577350     0.000000     0.000000     0.000000
   27     1.000000   120.000000    -0.577350    -0.577350     0.577350     0.000000     0.000000     0.000000
   28    -1.000000   120.000000    -0.577350    -0.577350     0.577350     0.000000     0.000000     0.000000
   29     1.000000   180.000000     1.000000     0.000000     0.000000     0.000000     0.000000     0.000000
   30    -1.000000   180.000000     1.000000     0.000000     0.000000     0.000000     0.000000     0.000000
   31     1.000000    90.000000     0.000000    -1.000000     0.000000     0.000000     0.000000     0.000000
   32    -1.000000    90.000000     0.000000    -1.000000     0.000000     0.000000     0.000000     0.000000
   33     1.000000   180.000000     0.707107     0.707107     0.000000     0.000000     0.000000     0.000000
   34    -1.000000   180.000000     0.707107     0.707107     0.000000     0.000000     0.000000     0.000000
   35     1.000000    90.000000     1.000000     0.000000     0.000000     0.000000     0.000000     0.000000
   36    -1.000000    90.000000     1.000000     0.000000     0.000000     0.000000     0.000000     0.000000
   37     1.000000   120.000000     0.577350    -0.577350    -0.577350     0.000000     0.000000     0.000000
   38    -1.000000   120.000000     0.577350    -0.577350    -0.577350     0.000000     0.000000     0.000000
   39     1.000000   180.000000     0.000000     1.000000     0.000000     0.000000     0.000000     0.000000
   40    -1.000000   180.000000     0.000000     1.000000     0.000000     0.000000     0.000000     0.000000
   41     1.000000   120.000000     0.577350     0.577350    -0.577350     0.000000     0.000000     0.000000
   42    -1.000000   120.000000     0.577350     0.577350    -0.577350     0.000000     0.000000     0.000000
   43     1.000000   180.000000     0.000000    -0.707107     0.707107     0.000000     0.000000     0.000000
   44    -1.000000   180.000000     0.000000    -0.707107     0.707107     0.000000     0.000000     0.000000
   45     1.000000   180.000000     0.707107    -0.707107     0.000000     0.000000     0.000000     0.000000
   46    -1.000000   180.000000     0.707107    -0.707107     0.000000     0.000000     0.000000     0.000000
   47     1.000000   180.000000     0.707107     0.000000    -0.707107     0.000000     0.000000     0.000000
   48    -1.000000   180.000000     0.707107     0.000000    -0.707107     0.000000     0.000000     0.000000
 
 Subroutine IBZKPT returns following result:
 ===========================================
 
 Found    110 irreducible k-points:
 
 Following reciprocal coordinates:
            Coordinates               Weight
  0.050000  0.050000  0.050000     96.000000
  0.150000  0.050000  0.050000    288.000000
  0.250000  0.050000  0.050000    288.000000
  0.350000  0.050000  0.050000    288.000000
  0.450000  0.050000  0.050000    288.000000
 -0.450000  0.050000  0.050000    288.000000
 -0.350000  0.050000  0.050000    288.000000
 -0.250000  0.050000  0.050000    288.000000
 -0.150000  0.050000  0.050000    288.000000
 -0.050000  0.050000  0.050000    288.000000
  0.150000  0.150000  0.050000    288.000000
  0.250000  0.150000  0.050000    576.000000
  0.350000  0.150000  0.050000    576.000000
  0.450000  0.150000  0.050000    576.000000
 -0.450000  0.150000  0.050000    576.000000
 -0.350000  0.150000  0.050000    576.000000
 -0.250000  0.150000  0.050000    576.000000
 -0.150000  0.150000  0.050000    576.000000
 -0.050000  0.150000  0.050000    576.000000
  0.250000  0.250000  0.050000    288.000000
  0.350000  0.250000  0.050000    576.000000
  0.450000  0.250000  0.050000    576.000000
 -0.450000  0.250000  0.050000    576.000000
 -0.350000  0.250000  0.050000    576.000000
 -0.250000  0.250000  0.050000    576.000000
 -0.150000  0.250000  0.050000    576.000000
 -0.050000  0.250000  0.050000    576.000000
  0.350000  0.350000  0.050000    288.000000
  0.450000  0.350000  0.050000    576.000000
 -0.450000  0.350000  0.050000    576.000000
 -0.350000  0.350000  0.050000    576.000000
 -0.250000  0.350000  0.050000    576.000000
 -0.150000  0.350000  0.050000    576.000000
 -0.050000  0.350000  0.050000    576.000000
  0.450000  0.450000  0.050000    288.000000
 -0.450000  0.450000  0.050000    576.000000
 -0.350000  0.450000  0.050000    576.000000
 -0.250000  0.450000  0.050000    576.000000
 -0.150000  0.450000  0.050000    576.000000
 -0.050000  0.450000  0.050000    576.000000
 -0.450000 -0.450000  0.050000    288.000000
 -0.350000 -0.450000  0.050000    576.000000
 -0.250000 -0.450000  0.050000    576.000000
 -0.150000 -0.450000  0.050000    576.000000
 -0.350000 -0.350000  0.050000    288.000000
 -0.250000 -0.350000  0.050000    576.000000
 -0.150000 -0.350000  0.050000    576.000000
 -0.250000 -0.250000  0.050000    288.000000
 -0.150000 -0.250000  0.050000    576.000000
 -0.150000 -0.150000  0.050000    288.000000
  0.150000  0.150000  0.150000     96.000000
  0.250000  0.150000  0.150000    288.000000
  0.350000  0.150000  0.150000    288.000000
  0.450000  0.150000  0.150000    288.000000
 -0.450000  0.150000  0.150000    288.000000
 -0.350000  0.150000  0.150000    288.000000
 -0.250000  0.150000  0.150000    288.000000
 -0.150000  0.150000  0.150000    288.000000
  0.250000  0.250000  0.150000    288.000000
  0.350000  0.250000  0.150000    576.000000
  0.450000  0.250000  0.150000    576.000000
 -0.450000  0.250000  0.150000    576.000000
 -0.350000  0.250000  0.150000    576.000000
 -0.250000  0.250000  0.150000    576.000000
 -0.150000  0.250000  0.150000    576.000000
  0.350000  0.350000  0.150000    288.000000
  0.450000  0.350000  0.150000    576.000000
 -0.450000  0.350000  0.150000    576.000000
 -0.350000  0.350000  0.150000    576.000000
 -0.250000  0.350000  0.150000    576.000000
 -0.150000  0.350000  0.150000    576.000000
  0.450000  0.450000  0.150000    288.000000
 -0.450000  0.450000  0.150000    576.000000
 -0.350000  0.450000  0.150000    576.000000
 -0.250000  0.450000  0.150000    576.000000
 -0.150000  0.450000  0.150000    576.000000
 -0.450000 -0.450000  0.150000    288.000000
 -0.350000 -0.450000  0.150000    576.000000
 -0.250000 -0.450000  0.150000    576.000000
 -0.350000 -0.350000  0.150000    288.000000
 -0.250000 -0.350000  0.150000    576.000000
 -0.250000 -0.250000  0.150000    288.000000
  0.250000  0.250000  0.250000     96.000000
  0.350000  0.250000  0.250000    288.000000
  0.450000  0.250000  0.250000    288.000000
 -0.450000  0.250000  0.250000    288.000000
 -0.350000  0.250000  0.250000    288.000000
 -0.250000  0.250000  0.250000    288.000000
  0.350000  0.350000  0.250000    288.000000
  0.450000  0.350000  0.250000    576.000000
 -0.450000  0.350000  0.250000    576.000000
 -0.350000  0.350000  0.250000    576.000000
 -0.250000  0.350000  0.250000    576.000000
  0.450000  0.450000  0.250000    288.000000
 -0.450000  0.450000  0.250000    576.000000
 -0.350000  0.450000  0.250000    576.000000
 -0.250000  0.450000  0.250000    576.000000
 -0.450000 -0.450000  0.250000    288.000000
 -0.350000 -0.450000  0.250000    576.000000
 -0.350000 -0.350000  0.250000    288.000000
  0.350000  0.350000  0.350000     96.000000
  0.450000  0.350000  0.350000    288.000000
 -0.450000  0.350000  0.350000    288.000000
 -0.350000  0.350000  0.350000    288.000000
  0.450000  0.450000  0.350000    288.000000
 -0.450000  0.450000  0.350000    576.000000
 -0.350000  0.450000  0.350000    576.000000
 -0.450000 -0.450000  0.350000    288.000000
  0.450000  0.450000  0.450000     96.000000
 -0.450000  0.450000  0.450000    288.000000
 
 Following cartesian coordinates:
            Coordinates               Weight
  0.050000  0.050000  0.050000     96.000000
 -0.050000  0.150000  0.150000    288.000000
 -0.150000  0.250000  0.250000    288.000000
 -0.250000  0.350000  0.350000    288.000000
 -0.350000  0.450000  0.450000    288.000000
  0.550000 -0.450000 -0.450000    288.000000
  0.450000 -0.350000 -0.350000    288.000000
  0.350000 -0.250000 -0.250000    288.000000
  0.250000 -0.150000 -0.150000    288.000000
  0.150000 -0.050000 -0.050000    288.000000
  0.050000  0.050000  0.250000    288.000000
 -0.050000  0.150000  0.350000    576.000000
 -0.150000  0.250000  0.450000    576.000000
 -0.250000  0.350000  0.550000    576.000000
  0.650000 -0.550000 -0.350000    576.000000
  0.550000 -0.450000 -0.250000    576.000000
  0.450000 -0.350000 -0.150000    576.000000
  0.350000 -0.250000 -0.050000    576.000000
  0.250000 -0.150000  0.050000    576.000000
  0.050000  0.050000  0.450000    288.000000
 -0.050000  0.150000  0.550000    576.000000
 -0.150000  0.250000  0.650000    576.000000
  0.750000 -0.650000 -0.250000    576.000000
  0.650000 -0.550000 -0.150000    576.000000
  0.550000 -0.450000 -0.050000    576.000000
  0.450000 -0.350000  0.050000    576.000000
  0.350000 -0.250000  0.150000    576.000000
  0.050000  0.050000  0.650000    288.000000
 -0.050000  0.150000  0.750000    576.000000
  0.850000 -0.750000 -0.150000    576.000000
  0.750000 -0.650000 -0.050000    576.000000
  0.650000 -0.550000  0.050000    576.000000
  0.550000 -0.450000  0.150000    576.000000
  0.450000 -0.350000  0.250000    576.000000
  0.050000  0.050000  0.850000    288.000000
  0.950000 -0.850000 -0.050000    576.000000
  0.850000 -0.750000  0.050000    576.000000
  0.750000 -0.650000  0.150000    576.000000
  0.650000 -0.550000  0.250000    576.000000
  0.550000 -0.450000  0.350000    576.000000
  0.050000  0.050000 -0.950000    288.000000
 -0.050000  0.150000 -0.850000    576.000000
 -0.150000  0.250000 -0.750000    576.000000
 -0.250000  0.350000 -0.650000    576.000000
  0.050000  0.050000 -0.750000    288.000000
 -0.050000  0.150000 -0.650000    576.000000
 -0.150000  0.250000 -0.550000    576.000000
  0.050000  0.050000 -0.550000    288.000000
 -0.050000  0.150000 -0.450000    576.000000
  0.050000  0.050000 -0.350000    288.000000
  0.150000  0.150000  0.150000     96.000000
  0.050000  0.250000  0.250000    288.000000
 -0.050000  0.350000  0.350000    288.000000
 -0.150000  0.450000  0.450000    288.000000
  0.750000 -0.450000 -0.450000    288.000000
  0.650000 -0.350000 -0.350000    288.000000
  0.550000 -0.250000 -0.250000    288.000000
  0.450000 -0.150000 -0.150000    288.000000
  0.150000  0.150000  0.350000    288.000000
  0.050000  0.250000  0.450000    576.000000
 -0.050000  0.350000  0.550000    576.000000
  0.850000 -0.550000 -0.350000    576.000000
  0.750000 -0.450000 -0.250000    576.000000
  0.650000 -0.350000 -0.150000    576.000000
  0.550000 -0.250000 -0.050000    576.000000
  0.150000  0.150000  0.550000    288.000000
  0.050000  0.250000  0.650000    576.000000
  0.950000 -0.650000 -0.250000    576.000000
  0.850000 -0.550000 -0.150000    576.000000
  0.750000 -0.450000 -0.050000    576.000000
  0.650000 -0.350000  0.050000    576.000000
  0.150000  0.150000  0.750000    288.000000
  1.050000 -0.750000 -0.150000    576.000000
  0.950000 -0.650000 -0.050000    576.000000
  0.850000 -0.550000  0.050000    576.000000
  0.750000 -0.450000  0.150000    576.000000
  0.150000  0.150000 -1.050000    288.000000
  0.050000  0.250000 -0.950000    576.000000
 -0.050000  0.350000 -0.850000    576.000000
  0.150000  0.150000 -0.850000    288.000000
  0.050000  0.250000 -0.750000    576.000000
  0.150000  0.150000 -0.650000    288.000000
  0.250000  0.250000  0.250000     96.000000
  0.150000  0.350000  0.350000    288.000000
  0.050000  0.450000  0.450000    288.000000
  0.950000 -0.450000 -0.450000    288.000000
  0.850000 -0.350000 -0.350000    288.000000
  0.750000 -0.250000 -0.250000    288.000000
  0.250000  0.250000  0.450000    288.000000
  0.150000  0.350000  0.550000    576.000000
  1.050000 -0.550000 -0.350000    576.000000
  0.950000 -0.450000 -0.250000    576.000000
  0.850000 -0.350000 -0.150000    576.000000
  0.250000  0.250000  0.650000    288.000000
  1.150000 -0.650000 -0.250000    576.000000
  1.050000 -0.550000 -0.150000    576.000000
  0.950000 -0.450000 -0.050000    576.000000
  0.250000  0.250000 -1.150000    288.000000
  0.150000  0.350000 -1.050000    576.000000
  0.250000  0.250000 -0.950000    288.000000
  0.350000  0.350000  0.350000     96.000000
  0.250000  0.450000  0.450000    288.000000
  1.150000 -0.450000 -0.450000    288.000000
  1.050000 -0.350000 -0.350000    288.000000
  0.350000  0.350000  0.550000    288.000000
  1.250000 -0.550000 -0.350000    576.000000
  1.150000 -0.450000 -0.250000    576.000000
  0.350000  0.350000 -1.250000    288.000000
  0.450000  0.450000  0.450000     96.000000
  1.350000 -0.450000 -0.450000    288.000000
 


--------------------------------------------------------------------------------------------------------




 Dimension of arrays:
   k-points           NKPTS =    110   k-points in BZ     NKDIM =    110   number of bands    NBANDS=     12
   number of dos      NEDOS =    301   number of ions     NIONS =      1
   non local maximal  LDIM  =      6   non local SUM 2l+1 LMDIM =     18
   total plane-waves  NPLWV =   1000
   max r-space proj   IRMAX =      1   max aug-charges    IRDMAX=   3498
   dimension x,y,z NGX =    10 NGY =   10 NGZ =   10
   dimension x,y,z NGXF=    20 NGYF=   20 NGZF=   20
   support grid    NGXF=    20 NGYF=   20 NGZF=   20
   ions per type =               1
   NGX,Y,Z   is equivalent  to a cutoff of   6.91,  6.91,  6.91 a.u.
   NGXF,Y,Z  is equivalent  to a cutoff of  13.83, 13.83, 13.83 a.u.

 SYSTEM =  fcc Ni                                  
 POSCAR =  FCC Ni Bulk                             

 Startparameter for this run:
   NWRITE =      2    write-flag & timer
   PREC   = normal    normal or accurate (medium, high low for compatibility)
   ISTART =      0    job   : 0-new  1-cont  2-samecut
   ICHARG =      2    charge: 1-file 2-atom 10-const
   ISPIN  =      2    spin polarized calculation?
   LNONCOLLINEAR =      F non collinear calculations
   LSORBIT =      F    spin-orbit coupling
   INIWAV =      1    electr: 0-lowe 1-rand  2-diag
   LASPH  =      F    aspherical Exc in radial PAW
   METAGGA=      F    non-selfconsistent MetaGGA calc.

 Electronic Relaxation 1
   ENCUT  =  270.0 eV  19.84 Ry    4.45 a.u.   3.22  3.22  3.22*2*pi/ulx,y,z
   ENINI  =  270.0     initial cutoff
   ENAUG  =  544.6 eV  augmentation charge cutoff
   NELM   =     60;   NELMIN=  2; NELMDL= -5     # of ELM steps 
   EDIFF  = 0.1E-03   stopping-criterion for ELM
   LREAL  =      F    real-space projection
   NLSPLINE    = F    spline interpolate recip. space projectors
   LCOMPAT=      F    compatible to vasp.4.4
   GGA_COMPAT  = T    GGA compatible to vasp.4.4-vasp.4.6
   LMAXPAW     = -100 max onsite density
   LMAXMIX     =    2 max onsite mixed and CHGCAR
   VOSKOWN=      0    Vosko Wilk Nusair interpolation
   ROPT   =    0.00000
 Ionic relaxation
   EDIFFG = 0.1E-02   stopping-criterion for IOM
   NSW    =      0    number of steps for IOM
   NBLOCK =      1;   KBLOCK =      1    inner block; outer block 
   IBRION =     -1    ionic relax: 0-MD 1-quasi-New 2-CG
   NFREE  =      0    steps in history (QN), initial steepest desc. (CG)
   ISIF   =      2    stress and relaxation
   IWAVPR =     10    prediction:  0-non 1-charg 2-wave 3-comb
   ISYM   =      2    0-nonsym 1-usesym 2-fastsym
   LCORR  =      T    Harris-Foulkes like correction to forces

   POTIM  = 0.5000    time-step for ionic-motion
   TEIN   =    0.0    initial temperature
   TEBEG  =    0.0;   TEEND  =   0.0 temperature during run
   SMASS  =  -3.00    Nose mass-parameter (am)
   estimated Nose-frequenzy (Omega)   =  0.10E-29 period in steps =****** mass=  -0.132E-27a.u.
   SCALEE = 1.0000    scale energy and forces
   NPACO  =    256;   APACO  = 16.0  distance and # of slots for P.C.
   PSTRESS=    0.0 pullay stress

  Mass of Ions in am
   POMASS =  58.69
  Ionic Valenz
   ZVAL   =  10.00
  Atomic Wigner-Seitz radii
   RWIGS  =  -1.00
  virtual crystal weights 
   VCA    =   1.00
   NELECT =      10.0000    total number of electrons
   NUPDOWN=      -1.0000    fix difference up-down

 DOS related values:
   EMIN   =  10.00;   EMAX   =-10.00  energy-range for DOS
   EFERMI =   0.00
   ISMEAR =     1;   SIGMA  =   0.20  broadening in eV -4-tet -1-fermi 0-gaus

 Electronic relaxation 2 (details)
   IALGO  =     38    algorithm
   LDIAG  =      T    sub-space diagonalisation (order eigenvalues)
   LSUBROT=      F    optimize rotation matrix (better conditioning)
   TURBO    =      0    0=normal 1=particle mesh
   IRESTART =      0    0=no restart 2=restart with 2 vectors
   NREBOOT  =      0    no. of reboots
   NMIN     =      0    reboot dimension
   EREF     =   0.00    reference energy to select bands
   IMIX   =      4    mixing-type and parameters
     AMIX     =   0.40;   BMIX     =  1.00
     AMIX_MAG =   1.60;   BMIX_MAG =  1.00
     AMIN     =   0.10
     WC   =   100.;   INIMIX=   1;  MIXPRE=   1;  MAXMIX= -45

 Intra band minimization:
   WEIMIN = 0.0000     energy-eigenvalue tresh-hold
   EBREAK =  0.21E-05  absolut break condition
   DEPER  =   0.30     relativ break condition  

   TIME   =   0.40     timestep for ELM

  volume/ion in A,a.u.               =       9.83        66.31
  Fermi-wavevector in a.u.,A,eV,Ry     =   1.646705  3.111822 36.894084  2.711639
  Thomas-Fermi vector in A             =   2.736288
 
 Write flags
   LWAVE        =      T    write WAVECAR
   LDOWNSAMPLE  =      F    k-point downsampling of WAVECAR
   LCHARG       =      T    write CHGCAR
   LVTOT        =      F    write LOCPOT, total local potential
   LVHAR        =      F    write LOCPOT, Hartree potential only
   LELF         =      F    write electronic localiz. function (ELF)
   LORBIT       =      0    0 simple, 1 ext, 2 COOP (PROOUT), +10 PAW based schemes


 Dipole corrections
   LMONO  =      F    monopole corrections only (constant potential shift)
   LDIPOL =      F    correct potential (dipole corrections)
   IDIPOL =      0    1-x, 2-y, 3-z, 4-all directions 
   EPSILON=  1.0000000 bulk dielectric constant

 Exchange correlation treatment:
   GGA     =    --    GGA type
   LEXCH   =     8    internal setting for exchange type
   VOSKOWN=      0    Vosko Wilk Nusair interpolation
   LHFCALC =     F    Hartree Fock is set to
   LHFONE  =     F    Hartree Fock one center treatment
   AEXX    =    0.0000 exact exchange contribution

 Linear response parameters
   LEPSILON=     F    determine dielectric tensor
   LRPA    =     F    only Hartree local field effects (RPA)
   LNABLA  =     F    use nabla operator in PAW spheres
   LVEL    =     F    velocity operator in full k-point grid
   LINTERFAST=   F  fast interpolation
   KINTER  =     0    interpolate to denser k-point grid
   CSHIFT  =0.1000    complex shift for real part using Kramers Kronig
   OMEGAMAX=  -1.0    maximum frequency
   DEG_THRESHOLD= 0.2000000E-02 threshold for treating states as degnerate
   RTIME   =   -0.100 relaxation time in fs
  (WPLASMAI=    0.000 imaginary part of plasma frequency in eV, 0.658/RTIME)
   DFIELD  = 0.0000000 0.0000000 0.0000000 field for delta impulse in time
 
 Orbital magnetization related:
   ORBITALMAG=     F  switch on orbital magnetization
   LCHIMAG   =     F  perturbation theory with respect to B field
   DQ        =  0.001000  dq finite difference perturbation B field
   LLRAUG    =     F  two centre corrections for induced B field



--------------------------------------------------------------------------------------------------------


 Static calculation
 charge density and potential will be updated during run
 spin polarized calculation
 Variant of blocked Davidson
 Davidson routine will perform the subspace rotation
 perform sub-space diagonalisation
    after iterative eigenvector-optimisation
 modified Broyden-mixing scheme, WC =      100.0
 initial mixing is a Kerker type mixing with AMIX =  0.4000 and BMIX =      1.0000
 Hartree-type preconditioning will be used
 using additional bands            7
 reciprocal scheme for non local part
 use partial core corrections
 calculate Harris-corrections to forces 
   (improved forces if not selfconsistent)
 use gradient corrections 
 use of overlap-Matrix (Vanderbilt PP)
 Methfessel and Paxton  Order N= 1 SIGMA  =   0.20


--------------------------------------------------------------------------------------------------------


  energy-cutoff  :      270.00
  volume of cell :        9.83
      direct lattice vectors                 reciprocal lattice vectors
     0.000000000  1.700000000  1.700000000    -0.294117647  0.294117647  0.294117647
     1.700000000  0.000000000  1.700000000     0.294117647 -0.294117647  0.294117647
     1.700000000  1.700000000  0.000000000     0.294117647  0.294117647 -0.294117647

  length of vectors
     2.404163056  2.404163056  2.404163056     0.509426708  0.509426708  0.509426708


 
 k-points in units of 2pi/SCALE and weight: 10x10x10                                
   0.05000000  0.05000000  0.05000000       0.002
  -0.05000000  0.15000000  0.15000000       0.006
  -0.15000000  0.25000000  0.25000000       0.006
  -0.25000000  0.35000000  0.35000000       0.006
  -0.35000000  0.45000000  0.45000000       0.006
   0.55000000 -0.45000000 -0.45000000       0.006
   0.45000000 -0.35000000 -0.35000000       0.006
   0.35000000 -0.25000000 -0.25000000       0.006
   0.25000000 -0.15000000 -0.15000000       0.006
   0.15000000 -0.05000000 -0.05000000       0.006
   0.05000000  0.05000000  0.25000000       0.006
  -0.05000000  0.15000000  0.35000000       0.012
  -0.15000000  0.25000000  0.45000000       0.012
  -0.25000000  0.35000000  0.55000000       0.012
   0.65000000 -0.55000000 -0.35000000       0.012
   0.55000000 -0.45000000 -0.25000000       0.012
   0.45000000 -0.35000000 -0.15000000       0.012
   0.35000000 -0.25000000 -0.05000000       0.012
   0.25000000 -0.15000000  0.05000000       0.012
   0.05000000  0.05000000  0.45000000       0.006
  -0.05000000  0.15000000  0.55000000       0.012
  -0.15000000  0.25000000  0.65000000       0.012
   0.75000000 -0.65000000 -0.25000000       0.012
   0.65000000 -0.55000000 -0.15000000       0.012
   0.55000000 -0.45000000 -0.05000000       0.012
   0.45000000 -0.35000000  0.05000000       0.012
   0.35000000 -0.25000000  0.15000000       0.012
   0.05000000  0.05000000  0.65000000       0.006
  -0.05000000  0.15000000  0.75000000       0.012
   0.85000000 -0.75000000 -0.15000000       0.012
   0.75000000 -0.65000000 -0.05000000       0.012
   0.65000000 -0.55000000  0.05000000       0.012
   0.55000000 -0.45000000  0.15000000       0.012
   0.45000000 -0.35000000  0.25000000       0.012
   0.05000000  0.05000000  0.85000000       0.006
   0.95000000 -0.85000000 -0.05000000       0.012
   0.85000000 -0.75000000  0.05000000       0.012
   0.75000000 -0.65000000  0.15000000       0.012
   0.65000000 -0.55000000  0.25000000       0.012
   0.55000000 -0.45000000  0.35000000       0.012
   0.05000000  0.05000000 -0.95000000       0.006
  -0.05000000  0.15000000 -0.85000000       0.012
  -0.15000000  0.25000000 -0.75000000       0.012
  -0.25000000  0.35000000 -0.65000000       0.012
   0.05000000  0.05000000 -0.75000000       0.006
  -0.05000000  0.15000000 -0.65000000       0.012
  -0.15000000  0.25000000 -0.55000000       0.012
   0.05000000  0.05000000 -0.55000000       0.006
  -0.05000000  0.15000000 -0.45000000       0.012
   0.05000000  0.05000000 -0.35000000       0.006
   0.15000000  0.15000000  0.15000000       0.002
   0.05000000  0.25000000  0.25000000       0.006
  -0.05000000  0.35000000  0.35000000       0.006
  -0.15000000  0.45000000  0.45000000       0.006
   0.75000000 -0.45000000 -0.45000000       0.006
   0.65000000 -0.35000000 -0.35000000       0.006
   0.55000000 -0.25000000 -0.25000000       0.006
   0.45000000 -0.15000000 -0.15000000       0.006
   0.15000000  0.15000000  0.35000000       0.006
   0.05000000  0.25000000  0.45000000       0.012
  -0.05000000  0.35000000  0.55000000       0.012
   0.85000000 -0.55000000 -0.35000000       0.012
   0.75000000 -0.45000000 -0.25000000       0.012
   0.65000000 -0.35000000 -0.15000000       0.012
   0.55000000 -0.25000000 -0.05000000       0.012
   0.15000000  0.15000000  0.55000000       0.006
   0.05000000  0.25000000  0.65000000       0.012
   0.95000000 -0.65000000 -0.25000000       0.012
   0.85000000 -0.55000000 -0.15000000       0.012
   0.75000000 -0.45000000 -0.05000000       0.012
   0.65000000 -0.35000000  0.05000000       0.012
   0.15000000  0.15000000  0.75000000       0.006
   1.05000000 -0.75000000 -0.15000000       0.012
   0.95000000 -0.65000000 -0.05000000       0.012
   0.85000000 -0.55000000  0.05000000       0.012
   0.75000000 -0.45000000  0.15000000       0.012
   0.15000000  0.15000000 -1.05000000       0.006
   0.05000000  0.25000000 -0.95000000       0.012
  -0.05000000  0.35000000 -0.85000000       0.012
   0.15000000  0.15000000 -0.85000000       0.006
   0.05000000  0.25000000 -0.75000000       0.012
   0.15000000  0.15000000 -0.65000000       0.006
   0.25000000  0.25000000  0.25000000       0.002
   0.15000000  0.35000000  0.35000000       0.006
   0.05000000  0.45000000  0.45000000       0.006
   0.95000000 -0.45000000 -0.45000000       0.006
   0.85000000 -0.35000000 -0.35000000       0.006
   0.75000000 -0.25000000 -0.25000000       0.006
   0.25000000  0.25000000  0.45000000       0.006
   0.15000000  0.35000000  0.55000000       0.012
   1.05000000 -0.55000000 -0.35000000       0.012
   0.95000000 -0.45000000 -0.25000000       0.012
   0.85000000 -0.35000000 -0.15000000       0.012
   0.25000000  0.25000000  0.65000000       0.006
   1.15000000 -0.65000000 -0.25000000       0.012
   1.05000000 -0.55000000 -0.15000000       0.012
   0.95000000 -0.45000000 -0.05000000       0.012
   0.25000000  0.25000000 -1.15000000       0.006
   0.15000000  0.35000000 -1.05000000       0.012
   0.25000000  0.25000000 -0.95000000       0.006
   0.35000000  0.35000000  0.35000000       0.002
   0.25000000  0.45000000  0.45000000       0.006
   1.15000000 -0.45000000 -0.45000000       0.006
   1.05000000 -0.35000000 -0.35000000       0.006
   0.35000000  0.35000000  0.55000000       0.006
   1.25000000 -0.55000000 -0.35000000       0.012
   1.15000000 -0.45000000 -0.25000000       0.012
   0.35000000  0.35000000 -1.25000000       0.006
   0.45000000  0.45000000  0.45000000       0.002
   1.35000000 -0.45000000 -0.45000000       0.006
 
 k-points in reciprocal lattice and weights: 10x10x10                                
   0.05000000  0.05000000  0.05000000       0.002
   0.15000000  0.05000000  0.05000000       0.006
   0.25000000  0.05000000  0.05000000       0.006
   0.35000000  0.05000000  0.05000000       0.006
   0.45000000  0.05000000  0.05000000       0.006
  -0.45000000  0.05000000  0.05000000       0.006
  -0.35000000  0.05000000  0.05000000       0.006
  -0.25000000  0.05000000  0.05000000       0.006
  -0.15000000  0.05000000  0.05000000       0.006
  -0.05000000  0.05000000  0.05000000       0.006
   0.15000000  0.15000000  0.05000000       0.006
   0.25000000  0.15000000  0.05000000       0.012
   0.35000000  0.15000000  0.05000000       0.012
   0.45000000  0.15000000  0.05000000       0.012
  -0.45000000  0.15000000  0.05000000       0.012
  -0.35000000  0.15000000  0.05000000       0.012
  -0.25000000  0.15000000  0.05000000       0.012
  -0.15000000  0.15000000  0.05000000       0.012
  -0.05000000  0.15000000  0.05000000       0.012
   0.25000000  0.25000000  0.05000000       0.006
   0.35000000  0.25000000  0.05000000       0.012
   0.45000000  0.25000000  0.05000000       0.012
  -0.45000000  0.25000000  0.05000000       0.012
  -0.35000000  0.25000000  0.05000000       0.012
  -0.25000000  0.25000000  0.05000000       0.012
  -0.15000000  0.25000000  0.05000000       0.012
  -0.05000000  0.25000000  0.05000000       0.012
   0.35000000  0.35000000  0.05000000       0.006
   0.45000000  0.35000000  0.05000000       0.012
  -0.45000000  0.35000000  0.05000000       0.012
  -0.35000000  0.35000000  0.05000000       0.012
  -0.25000000  0.35000000  0.05000000       0.012
  -0.15000000  0.35000000  0.05000000       0.012
  -0.05000000  0.35000000  0.05000000       0.012
   0.45000000  0.45000000  0.05000000       0.006
  -0.45000000  0.45000000  0.05000000       0.012
  -0.35000000  0.45000000  0.05000000       0.012
  -0.25000000  0.45000000  0.05000000       0.012
  -0.15000000  0.45000000  0.05000000       0.012
  -0.05000000  0.45000000  0.05000000       0.012
  -0.45000000 -0.45000000  0.05000000       0.006
  -0.35000000 -0.45000000  0.05000000       0.012
  -0.25000000 -0.45000000  0.05000000       0.012
  -0.15000000 -0.45000000  0.05000000       0.012
  -0.35000000 -0.35000000  0.05000000       0.006
  -0.25000000 -0.35000000  0.05000000       0.012
  -0.15000000 -0.35000000  0.05000000       0.012
  -0.25000000 -0.25000000  0.05000000       0.006
  -0.15000000 -0.25000000  0.05000000       0.012
  -0.15000000 -0.15000000  0.05000000       0.006
   0.15000000  0.15000000  0.15000000       0.002
   0.25000000  0.15000000  0.15000000       0.006
   0.35000000  0.15000000  0.15000000       0.006
   0.45000000  0.15000000  0.15000000       0.006
  -0.45000000  0.15000000  0.15000000       0.006
  -0.35000000  0.15000000  0.15000000       0.006
  -0.25000000  0.15000000  0.15000000       0.006
  -0.15000000  0.15000000  0.15000000       0.006
   0.25000000  0.25000000  0.15000000       0.006
   0.35000000  0.25000000  0.15000000       0.012
   0.45000000  0.25000000  0.15000000       0.012
  -0.45000000  0.25000000  0.15000000       0.012
  -0.35000000  0.25000000  0.15000000       0.012
  -0.25000000  0.25000000  0.15000000       0.012
  -0.15000000  0.25000000  0.15000000       0.012
   0.35000000  0.35000000  0.15000000       0.006
   0.45000000  0.35000000  0.15000000       0.012
  -0.45000000  0.35000000  0.15000000       0.012
  -0.35000000  0.35000000  0.15000000       0.012
  -0.25000000  0.35000000  0.15000000       0.012
  -0.15000000  0.35000000  0.15000000       0.012
   0.45000000  0.45000000  0.15000000       0.006
  -0.45000000  0.45000000  0.15000000       0.012
  -0.35000000  0.45000000  0.15000000       0.012
  -0.25000000  0.45000000  0.15000000       0.012
  -0.15000000  0.45000000  0.15000000       0.012
  -0.45000000 -0.45000000  0.15000000       0.006
  -0.35000000 -0.45000000  0.15000000       0.012
  -0.25000000 -0.45000000  0.15000000       0.012
  -0.35000000 -0.35000000  0.15000000       0.006
  -0.25000000 -0.35000000  0.15000000       0.012
  -0.25000000 -0.25000000  0.15000000       0.006
   0.25000000  0.25000000  0.25000000       0.002
   0.35000000  0.25000000  0.25000000       0.006
   0.45000000  0.25000000  0.25000000       0.006
  -0.45000000  0.25000000  0.25000000       0.006
  -0.35000000  0.25000000  0.25000000       0.006
  -0.25000000  0.25000000  0.25000000       0.006
   0.35000000  0.35000000  0.25000000       0.006
   0.45000000  0.35000000  0.25000000       0.012
  -0.45000000  0.35000000  0.25000000       0.012
  -0.35000000  0.35000000  0.25000000       0.012
  -0.25000000  0.35000000  0.25000000       0.012
   0.45000000  0.45000000  0.25000000       0.006
  -0.45000000  0.45000000  0.25000000       0.012
  -0.35000000  0.45000000  0.25000000       0.012
  -0.25000000  0.45000000  0.25000000       0.012
  -0.45000000 -0.45000000  0.25000000       0.006
  -0.35000000 -0.45000000  0.25000000       0.012
  -0.35000000 -0.35000000  0.25000000       0.006
   0.35000000  0.35000000  0.35000000       0.002
   0.45000000  0.35000000  0.35000000       0.006
  -0.45000000  0.35000000  0.35000000       0.006
  -0.35000000  0.35000000  0.35000000       0.006
   0.45000000  0.45000000  0.35000000       0.006
  -0.45000000  0.45000000  0.35000000       0.012
  -0.35000000  0.45000000  0.35000000       0.012
  -0.45000000 -0.45000000  0.35000000       0.006
   0.45000000  0.45000000  0.45000000       0.002
  -0.45000000  0.45000000  0.45000000       0.006
 
 position of ions in fractional coordinates (direct lattice) 
   0.00000000  0.00000000  0.00000000
 
 position of ions in cartesian coordinates  (Angst):
   0.00000000  0.00000000  0.00000000
 


--------------------------------------------------------------------------------------------------------


 k-point  1 :   0.0500 0.0500 0.0500  plane waves:     113
 k-point  2 :   0.1500 0.0500 0.0500  plane waves:     104
 k-point  3 :   0.2500 0.0500 0.0500  plane waves:      99
 k-point  4 :   0.3500 0.0500 0.0500  plane waves:      98
 k-point  5 :   0.4500 0.0500 0.0500  plane waves:      99
 k-point  6 :  -0.4500 0.0500 0.0500  plane waves:      99
 k-point  7 :  -0.3500 0.0500 0.0500  plane waves:      99
 k-point  8 :  -0.2500 0.0500 0.0500  plane waves:      98
 k-point  9 :  -0.1500 0.0500 0.0500  plane waves:     100
 k-point 10 :  -0.0500 0.0500 0.0500  plane waves:     107
 k-point 11 :   0.1500 0.1500 0.0500  plane waves:     103
 k-point 12 :   0.2500 0.1500 0.0500  plane waves:      98
 k-point 13 :   0.3500 0.1500 0.0500  plane waves:      98
 k-point 14 :   0.4500 0.1500 0.0500  plane waves:      99
 k-point 15 :  -0.4500 0.1500 0.0500  plane waves:      99
 k-point 16 :  -0.3500 0.1500 0.0500  plane waves:      99
 k-point 17 :  -0.2500 0.1500 0.0500  plane waves:      99
 k-point 18 :  -0.1500 0.1500 0.0500  plane waves:      97
 k-point 19 :  -0.0500 0.1500 0.0500  plane waves:     100
 k-point 20 :   0.2500 0.2500 0.0500  plane waves:      98
 k-point 21 :   0.3500 0.2500 0.0500  plane waves:      97
 k-point 22 :   0.4500 0.2500 0.0500  plane waves:      98
 k-point 23 :  -0.4500 0.2500 0.0500  plane waves:      99
 k-point 24 :  -0.3500 0.2500 0.0500  plane waves:      98
 k-point 25 :  -0.2500 0.2500 0.0500  plane waves:      95
 k-point 26 :  -0.1500 0.2500 0.0500  plane waves:      97
 k-point 27 :  -0.0500 0.2500 0.0500  plane waves:      99
 k-point 28 :   0.3500 0.3500 0.0500  plane waves:      98
 k-point 29 :   0.4500 0.3500 0.0500  plane waves:     101
 k-point 30 :  -0.4500 0.3500 0.0500  plane waves:     101
 k-point 31 :  -0.3500 0.3500 0.0500  plane waves:     101
 k-point 32 :  -0.2500 0.3500 0.0500  plane waves:      98
 k-point 33 :  -0.1500 0.3500 0.0500  plane waves:      97
 k-point 34 :  -0.0500 0.3500 0.0500  plane waves:      98
 k-point 35 :   0.4500 0.4500 0.0500  plane waves:      98
 k-point 36 :  -0.4500 0.4500 0.0500  plane waves:     100
 k-point 37 :  -0.3500 0.4500 0.0500  plane waves:     100
 k-point 38 :  -0.2500 0.4500 0.0500  plane waves:     100
 k-point 39 :  -0.1500 0.4500 0.0500  plane waves:      98
 k-point 40 :  -0.0500 0.4500 0.0500  plane waves:      99
 k-point 41 :  -0.4500-0.4500 0.0500  plane waves:      98
 k-point 42 :  -0.3500-0.4500 0.0500  plane waves:     100
 k-point 43 :  -0.2500-0.4500 0.0500  plane waves:     101
 k-point 44 :  -0.1500-0.4500 0.0500  plane waves:      97
 k-point 45 :  -0.3500-0.3500 0.0500  plane waves:      97
 k-point 46 :  -0.2500-0.3500 0.0500  plane waves:      98
 k-point 47 :  -0.1500-0.3500 0.0500  plane waves:      97
 k-point 48 :  -0.2500-0.2500 0.0500  plane waves:      98
 k-point 49 :  -0.1500-0.2500 0.0500  plane waves:      95
 k-point 50 :  -0.1500-0.1500 0.0500  plane waves:      97
 k-point 51 :   0.1500 0.1500 0.1500  plane waves:     104
 k-point 52 :   0.2500 0.1500 0.1500  plane waves:      97
 k-point 53 :   0.3500 0.1500 0.1500  plane waves:      97
 k-point 54 :   0.4500 0.1500 0.1500  plane waves:      98
 k-point 55 :  -0.4500 0.1500 0.1500  plane waves:      99
 k-point 56 :  -0.3500 0.1500 0.1500  plane waves:      97
 k-point 57 :  -0.2500 0.1500 0.1500  plane waves:      99
 k-point 58 :  -0.1500 0.1500 0.1500  plane waves:      99
 k-point 59 :   0.2500 0.2500 0.1500  plane waves:      99
 k-point 60 :   0.3500 0.2500 0.1500  plane waves:      98
 k-point 61 :   0.4500 0.2500 0.1500  plane waves:      97
 k-point 62 :  -0.4500 0.2500 0.1500  plane waves:      99
 k-point 63 :  -0.3500 0.2500 0.1500  plane waves:      99
 k-point 64 :  -0.2500 0.2500 0.1500  plane waves:      98
 k-point 65 :  -0.1500 0.2500 0.1500  plane waves:      95
 k-point 66 :   0.3500 0.3500 0.1500  plane waves:      97
 k-point 67 :   0.4500 0.3500 0.1500  plane waves:      99
 k-point 68 :  -0.4500 0.3500 0.1500  plane waves:     100
 k-point 69 :  -0.3500 0.3500 0.1500  plane waves:     101
 k-point 70 :  -0.2500 0.3500 0.1500  plane waves:      99
 k-point 71 :  -0.1500 0.3500 0.1500  plane waves:      99
 k-point 72 :   0.4500 0.4500 0.1500  plane waves:      99
 k-point 73 :  -0.4500 0.4500 0.1500  plane waves:     101
 k-point 74 :  -0.3500 0.4500 0.1500  plane waves:     104
 k-point 75 :  -0.2500 0.4500 0.1500  plane waves:     102
 k-point 76 :  -0.1500 0.4500 0.1500  plane waves:      98
 k-point 77 :  -0.4500-0.4500 0.1500  plane waves:     102
 k-point 78 :  -0.3500-0.4500 0.1500  plane waves:     103
 k-point 79 :  -0.2500-0.4500 0.1500  plane waves:     103
 k-point 80 :  -0.3500-0.3500 0.1500  plane waves:      99
 k-point 81 :  -0.2500-0.3500 0.1500  plane waves:     101
 k-point 82 :  -0.2500-0.2500 0.1500  plane waves:      96
 k-point 83 :   0.2500 0.2500 0.2500  plane waves:      98
 k-point 84 :   0.3500 0.2500 0.2500  plane waves:     100
 k-point 85 :   0.4500 0.2500 0.2500  plane waves:      96
 k-point 86 :  -0.4500 0.2500 0.2500  plane waves:      96
 k-point 87 :  -0.3500 0.2500 0.2500  plane waves:      99
 k-point 88 :  -0.2500 0.2500 0.2500  plane waves:     100
 k-point 89 :   0.3500 0.3500 0.2500  plane waves:     100
 k-point 90 :   0.4500 0.3500 0.2500  plane waves:      96
 k-point 91 :  -0.4500 0.3500 0.2500  plane waves:      99
 k-point 92 :  -0.3500 0.3500 0.2500  plane waves:      97
 k-point 93 :  -0.2500 0.3500 0.2500  plane waves:     101
 k-point 94 :   0.4500 0.4500 0.2500  plane waves:      95
 k-point 95 :  -0.4500 0.4500 0.2500  plane waves:     100
 k-point 96 :  -0.3500 0.4500 0.2500  plane waves:     103
 k-point 97 :  -0.2500 0.4500 0.2500  plane waves:     102
 k-point 98 :  -0.4500-0.4500 0.2500  plane waves:     101
 k-point 99 :  -0.3500-0.4500 0.2500  plane waves:     100
 k-point ** :  -0.3500-0.3500 0.2500  plane waves:     101
 k-point ** :   0.3500 0.3500 0.3500  plane waves:      98
 k-point ** :   0.4500 0.3500 0.3500  plane waves:     101
 k-point ** :  -0.4500 0.3500 0.3500  plane waves:      97
 k-point ** :  -0.3500 0.3500 0.3500  plane waves:     101
 k-point ** :   0.4500 0.4500 0.3500  plane waves:      99
 k-point ** :  -0.4500 0.4500 0.3500  plane waves:      98
 k-point ** :  -0.3500 0.4500 0.3500  plane waves:      97
 k-point ** :  -0.4500-0.4500 0.3500  plane waves:      99
 k-point ** :   0.4500 0.4500 0.4500  plane waves:      99
 k-point ** :  -0.4500 0.4500 0.4500  plane waves:      99

 maximum and minimum number of plane-waves per node :       113       95

 maximum number of plane-waves:       113
 maximum index in each direction: 
   IXMAX=    3   IYMAX=    3   IZMAX=    3
   IXMIN=   -3   IYMIN=   -3   IZMIN=   -3


 serial   3D FFT for wavefunctions
 parallel 3D FFT for charge:
    minimum data exchange during FFTs selected (reduces bandwidth)


 total amount of memory used by VASP MPI-rank0    33768. kBytes
=======================================================================

   base      :      30000. kBytes
   nonl-proj :       1839. kBytes
   fftplans  :        142. kBytes
   grid      :        320. kBytes
   one-center:         31. kBytes
   wavefun   :       1436. kBytes
 
     INWAV:  cpu time    0.0000: real time    0.0002
 Broyden mixing: mesh for mixing (old mesh)
   NGX =  7   NGY =  7   NGZ =  7
  (NGX  = 20   NGY  = 20   NGZ  = 20)
  gives a total of    343 points

 initial charge density was supplied:
 charge density of overlapping atoms calculated
 number of electron      10.0000000 magnetization       3.0000000
 keeping initial charge density in first step


--------------------------------------------------------------------------------------------------------


 Maximum index for augmentation-charges          805 (set IRDMAX)


--------------------------------------------------------------------------------------------------------


 First call to EWALD:  gamma=   0.828
 Maximum number of real-space cells 3x 3x 3
 Maximum number of reciprocal cells 3x 3x 3

    FEWALD:  cpu time    0.0010: real time    0.0010


--------------------------------------- Iteration      1(   1)  ---------------------------------------


    POTLOK:  cpu time    0.0027: real time    0.0043
    SETDIJ:  cpu time    0.0040: real time    0.0040
     EDDAV:  cpu time    0.3278: real time    0.3353
       DOS:  cpu time    0.0019: real time    0.0019
    --------------------------------------------
      LOOP:  cpu time    0.3364: real time    0.3455

 eigenvalue-minimisations  :  5880
 total energy-change (2. order) : 0.1884161E+02  (-0.2950408E+03)
 number of electron      10.0000000 magnetization       3.0000000
 augmentation part       10.0000000 magnetization       3.0000000

 Free energy of the ion-electron system (eV)
  ---------------------------------------------------
  alpha Z        PSCENC =        51.90250458
  Ewald energy   TEWEN  =      -970.89761834
  -Hartree energ DENC   =      -229.87206546
  -exchange      EXHF   =         0.00000000
  -V(xc)+E(xc)   XCENC  =        33.06754538
  PAW double counting   =       961.92645289    -1028.66799202
  entropy T*S    EENTRO =         0.00005273
  eigenvalues    EBANDS =       123.74665883
  atomic energy  EATOM  =      1077.63607467
  Solvation  Ediel_sol  =         0.00000000
  ---------------------------------------------------
  free energy    TOTEN  =        18.84161325 eV

  energy without entropy =       18.84156052  energy(sigma->0) =       18.84159567


--------------------------------------------------------------------------------------------------------




--------------------------------------- Iteration      1(   2)  ---------------------------------------


     EDDAV:  cpu time    0.3054: real time    0.3131
       DOS:  cpu time    0.0019: real time    0.0019
    --------------------------------------------
      LOOP:  cpu time    0.3073: real time    0.3150

 eigenvalue-minimisations  :  5752
 total energy-change (2. order) :-0.2413295E+02  (-0.2251397E+02)
 number of electron      10.0000000 magnetization       3.0000000
 augmentation part       10.0000000 magnetization       3.0000000

 Free energy of the ion-electron system (eV)
  ---------------------------------------------------
  alpha Z        PSCENC =        51.90250458
  Ewald energy   TEWEN  =      -970.89761834
  -Hartree energ DENC   =      -229.87206546
  -exchange      EXHF   =         0.00000000
  -V(xc)+E(xc)   XCENC  =        33.06754538
  PAW double counting   =       961.92645289    -1028.66799202
  entropy T*S    EENTRO =        -0.00106002
  eigenvalues    EBANDS =        99.61481833
  atomic energy  EATOM  =      1077.63607467
  Solvation  Ediel_sol  =         0.00000000
  ---------------------------------------------------
  free energy    TOTEN  =        -5.29134000 eV

  energy without entropy =       -5.29027998  energy(sigma->0) =       -5.29098666


--------------------------------------------------------------------------------------------------------




--------------------------------------- Iteration      1(   3)  ---------------------------------------


     EDDAV:  cpu time    0.3113: real time    0.3183
       DOS:  cpu time    0.0020: real time    0.0020
    --------------------------------------------
      LOOP:  cpu time    0.3133: real time    0.3203

 eigenvalue-minimisations  :  6048
 total energy-change (2. order) :-0.4061363E+00  (-0.4049966E+00)
 number of electron      10.0000000 magnetization       3.0000000
 augmentation part       10.0000000 magnetization       3.0000000

 Free energy of the ion-electron system (eV)
  ---------------------------------------------------
  alpha Z        PSCENC =        51.90250458
  Ewald energy   TEWEN  =      -970.89761834
  -Hartree energ DENC   =      -229.87206546
  -exchange      EXHF   =         0.00000000
  -V(xc)+E(xc)   XCENC  =        33.06754538
  PAW double counting   =       961.92645289    -1028.66799202
  entropy T*S    EENTRO =        -0.00138239
  eigenvalues    EBANDS =        99.20900443
  atomic energy  EATOM  =      1077.63607467
  Solvation  Ediel_sol  =         0.00000000
  ---------------------------------------------------
  free energy    TOTEN  =        -5.69747628 eV

  energy without entropy =       -5.69609388  energy(sigma->0) =       -5.69701548


--------------------------------------------------------------------------------------------------------




--------------------------------------- Iteration      1(   4)  ---------------------------------------


     EDDAV:  cpu time    0.3057: real time    0.3123
       DOS:  cpu time    0.0020: real time    0.0020
    --------------------------------------------
      LOOP:  cpu time    0.3077: real time    0.3143

 eigenvalue-minimisations  :  5916
 total energy-change (2. order) :-0.1944703E-02  (-0.1944539E-02)
 number of electron      10.0000000 magnetization       3.0000000
 augmentation part       10.0000000 magnetization       3.0000000

 Free energy of the ion-electron system (eV)
  ---------------------------------------------------
  alpha Z        PSCENC =        51.90250458
  Ewald energy   TEWEN  =      -970.89761834
  -Hartree energ DENC   =      -229.87206546
  -exchange      EXHF   =         0.00000000
  -V(xc)+E(xc)   XCENC  =        33.06754538
  PAW double counting   =       961.92645289    -1028.66799202
  entropy T*S    EENTRO =        -0.00138509
  eigenvalues    EBANDS =        99.20706242
  atomic energy  EATOM  =      1077.63607467
  Solvation  Ediel_sol  =         0.00000000
  ---------------------------------------------------
  free energy    TOTEN  =        -5.69942098 eV

  energy without entropy =       -5.69803589  energy(sigma->0) =       -5.69895928


--------------------------------------------------------------------------------------------------------




--------------------------------------- Iteration      1(   5)  ---------------------------------------


     EDDAV:  cpu time    0.3051: real time    0.3119
       DOS:  cpu time    0.0020: real time    0.0020
    CHARGE:  cpu time    0.0045: real time    0.0045
    MIXING:  cpu time    0.0003: real time    0.0003
    --------------------------------------------
      LOOP:  cpu time    0.3118: real time    0.3187

 eigenvalue-minimisations  :  5940
 total energy-change (2. order) :-0.2461956E-04  (-0.2461802E-04)
 number of electron       9.9999998 magnetization       0.4307958
 augmentation part        5.5789280 magnetization       0.2430295

 Broyden mixing:
  rms(total) = 0.15189E+01    rms(broyden)= 0.15188E+01
  rms(prec ) = 0.35658E+01
  weight for this iteration     100.00

 Free energy of the ion-electron system (eV)
  ---------------------------------------------------
  alpha Z        PSCENC =        51.90250458
  Ewald energy   TEWEN  =      -970.89761834
  -Hartree energ DENC   =      -229.87206546
  -exchange      EXHF   =         0.00000000
  -V(xc)+E(xc)   XCENC  =        33.06754538
  PAW double counting   =       961.92645289    -1028.66799202
  entropy T*S    EENTRO =        -0.00138514
  eigenvalues    EBANDS =        99.20703785
  atomic energy  EATOM  =      1077.63607467
  Solvation  Ediel_sol  =         0.00000000
  ---------------------------------------------------
  free energy    TOTEN  =        -5.69944560 eV

  energy without entropy =       -5.69806046  energy(sigma->0) =       -5.69898389


--------------------------------------------------------------------------------------------------------




--------------------------------------- Iteration      1(   6)  ---------------------------------------


    POTLOK:  cpu time    0.0032: real time    0.0033
    SETDIJ:  cpu time    0.0033: real time    0.0033
     EDDAV:  cpu time    0.3339: real time    0.3406
       DOS:  cpu time    0.0020: real time    0.0020
    CHARGE:  cpu time    0.0046: real time    0.0046
    MIXING:  cpu time    0.0004: real time    0.0003
    --------------------------------------------
      LOOP:  cpu time    0.3474: real time    0.3542

 eigenvalue-minimisations  :  6684
 total energy-change (2. order) : 0.4229285E-01  (-0.1127831E+01)
 number of electron       9.9999998 magnetization       0.5664226
 augmentation part        6.4082890 magnetization       0.6086482

 Broyden mixing:
  rms(total) = 0.53351E+00    rms(broyden)= 0.53344E+00
  rms(prec ) = 0.12909E+01
  weight for this iteration     100.00

 eigenvalues of (default mixing * dielectric matrix)
  average eigenvalue GAMMA=   0.9172
  0.9172

 Free energy of the ion-electron system (eV)
  ---------------------------------------------------
  alpha Z        PSCENC =        51.90250458
  Ewald energy   TEWEN  =      -970.89761834
  -Hartree energ DENC   =      -205.96732299
  -exchange      EXHF   =         0.00000000
  -V(xc)+E(xc)   XCENC  =        30.85035928
  PAW double counting   =      1058.32381165    -1121.41852979
  entropy T*S    EENTRO =        -0.00436972
  eigenvalues    EBANDS =        73.91793790
  atomic energy  EATOM  =      1077.63607467
  Solvation  Ediel_sol  =         0.00000000
  ---------------------------------------------------
  free energy    TOTEN  =        -5.65715275 eV

  energy without entropy =       -5.65278304  energy(sigma->0) =       -5.65569618


--------------------------------------------------------------------------------------------------------




--------------------------------------- Iteration      1(   7)  ---------------------------------------


    POTLOK:  cpu time    0.0031: real time    0.0032
    SETDIJ:  cpu time    0.0034: real time    0.0034
     EDDAV:  cpu time    0.3313: real time    0.3380
       DOS:  cpu time    0.0021: real time    0.0021
    CHARGE:  cpu time    0.0042: real time    0.0041
    MIXING:  cpu time    0.0003: real time    0.0003
    --------------------------------------------
      LOOP:  cpu time    0.3443: real time    0.3512

 eigenvalue-minimisations  :  6668
 total energy-change (2. order) : 0.2499707E+00  (-0.2044847E+00)
 number of electron       9.9999998 magnetization       0.6612634
 augmentation part        6.1047863 magnetization       0.6412057

 Broyden mixing:
  rms(total) = 0.19591E+00    rms(broyden)= 0.19590E+00
  rms(prec ) = 0.38244E+00
  weight for this iteration     100.00

 eigenvalues of (default mixing * dielectric matrix)
  average eigenvalue GAMMA=   0.9285
  1.1136  0.7434

 Free energy of the ion-electron system (eV)
  ---------------------------------------------------
  alpha Z        PSCENC =        51.90250458
  Ewald energy   TEWEN  =      -970.89761834
  -Hartree energ DENC   =      -212.37930765
  -exchange      EXHF   =         0.00000000
  -V(xc)+E(xc)   XCENC  =        31.17621326
  PAW double counting   =      1100.06458387    -1166.98911817
  entropy T*S    EENTRO =        -0.00120809
  eigenvalues    EBANDS =        84.08069382
  atomic energy  EATOM  =      1077.63607467
  Solvation  Ediel_sol  =         0.00000000
  ---------------------------------------------------
  free energy    TOTEN  =        -5.40718205 eV

  energy without entropy =       -5.40597396  energy(sigma->0) =       -5.40677935


--------------------------------------------------------------------------------------------------------




--------------------------------------- Iteration      1(   8)  ---------------------------------------


    POTLOK:  cpu time    0.0029: real time    0.0031
    SETDIJ:  cpu time    0.0031: real time    0.0031
     EDDAV:  cpu time    0.3046: real time    0.3112
       DOS:  cpu time    0.0020: real time    0.0020
    CHARGE:  cpu time    0.0042: real time    0.0042
    MIXING:  cpu time    0.0009: real time    0.0003
    --------------------------------------------
      LOOP:  cpu time    0.3178: real time    0.3240

 eigenvalue-minimisations  :  5880
 total energy-change (2. order) : 0.1407737E-01  (-0.1658372E-02)
 number of electron       9.9999998 magnetization       0.6011687
 augmentation part        6.1258496 magnetization       0.5665152

 Broyden mixing:
  rms(total) = 0.99980E-01    rms(broyden)= 0.99979E-01
  rms(prec ) = 0.17926E+00
  weight for this iteration     100.00

 eigenvalues of (default mixing * dielectric matrix)
  average eigenvalue GAMMA=   0.9951
  0.7517  0.7517  1.4820

 Free energy of the ion-electron system (eV)
  ---------------------------------------------------
  alpha Z        PSCENC =        51.90250458
  Ewald energy   TEWEN  =      -970.89761834
  -Hartree energ DENC   =      -210.43075786
  -exchange      EXHF   =         0.00000000
  -V(xc)+E(xc)   XCENC  =        31.08198371
  PAW double counting   =      1148.37177626    -1216.44670009
  entropy T*S    EENTRO =        -0.00130305
  eigenvalues    EBANDS =        83.39093544
  atomic energy  EATOM  =      1077.63607467
  Solvation  Ediel_sol  =         0.00000000
  ---------------------------------------------------
  free energy    TOTEN  =        -5.39310467 eV

  energy without entropy =       -5.39180163  energy(sigma->0) =       -5.39267032


--------------------------------------------------------------------------------------------------------




--------------------------------------- Iteration      1(   9)  ---------------------------------------


    POTLOK:  cpu time    0.0025: real time    0.0032
    SETDIJ:  cpu time    0.0031: real time    0.0031
     EDDAV:  cpu time    0.3436: real time    0.3503
       DOS:  cpu time    0.0021: real time    0.0021
    CHARGE:  cpu time    0.0039: real time    0.0039
    MIXING:  cpu time    0.0009: real time    0.0003
    --------------------------------------------
      LOOP:  cpu time    0.3562: real time    0.3630

 eigenvalue-minimisations  :  6912
 total energy-change (2. order) : 0.3531436E-02  (-0.2877802E-03)
 number of electron       9.9999998 magnetization       0.6015736
 augmentation part        6.1369422 magnetization       0.5729584

 Broyden mixing:
  rms(total) = 0.40351E-01    rms(broyden)= 0.40351E-01
  rms(prec ) = 0.62630E-01
  weight for this iteration     100.00

 eigenvalues of (default mixing * dielectric matrix)
  average eigenvalue GAMMA=   1.1352
  2.2687  0.9809  0.6920  0.5992

 Free energy of the ion-electron system (eV)
  ---------------------------------------------------
  alpha Z        PSCENC =        51.90250458
  Ewald energy   TEWEN  =      -970.89761834
  -Hartree energ DENC   =      -209.29006430
  -exchange      EXHF   =         0.00000000
  -V(xc)+E(xc)   XCENC  =        31.02133590
  PAW double counting   =      1181.92335684    -1250.77695377
  entropy T*S    EENTRO =        -0.00158257
  eigenvalues    EBANDS =        83.09337374
  atomic energy  EATOM  =      1077.63607467
  Solvation  Ediel_sol  =         0.00000000
  ---------------------------------------------------
  free energy    TOTEN  =        -5.38957324 eV

  energy without entropy =       -5.38799067  energy(sigma->0) =       -5.38904572


--------------------------------------------------------------------------------------------------------




--------------------------------------- Iteration      1(  10)  ---------------------------------------


    POTLOK:  cpu time    0.0024: real time    0.0031
    SETDIJ:  cpu time    0.0032: real time    0.0032
     EDDAV:  cpu time    0.2482: real time    0.2546
       DOS:  cpu time    0.0020: real time    0.0020
    CHARGE:  cpu time    0.0039: real time    0.0039
    MIXING:  cpu time    0.0003: real time    0.0003
    --------------------------------------------
      LOOP:  cpu time    0.2601: real time    0.2672

 eigenvalue-minimisations  :  4220
 total energy-change (2. order) : 0.4993305E-03  (-0.5710239E-04)
 number of electron       9.9999998 magnetization       0.6131194
 augmentation part        6.1413137 magnetization       0.5859215

 Broyden mixing:
  rms(total) = 0.50675E-02    rms(broyden)= 0.50663E-02
  rms(prec ) = 0.73648E-02
  weight for this iteration     100.00

 eigenvalues of (default mixing * dielectric matrix)
  average eigenvalue GAMMA=   1.1361
  2.4123  1.1403  0.8233  0.6523  0.6523

 Free energy of the ion-electron system (eV)
  ---------------------------------------------------
  alpha Z        PSCENC =        51.90250458
  Ewald energy   TEWEN  =      -970.89761834
  -Hartree energ DENC   =      -208.78328689
  -exchange      EXHF   =         0.00000000
  -V(xc)+E(xc)   XCENC  =        30.99814510
  PAW double counting   =      1198.30674660    -1267.50488371
  entropy T*S    EENTRO =        -0.00159303
  eigenvalues    EBANDS =        82.95483712
  atomic energy  EATOM  =      1077.63607467
  Solvation  Ediel_sol  =         0.00000000
  ---------------------------------------------------
  free energy    TOTEN  =        -5.38907391 eV

  energy without entropy =       -5.38748088  energy(sigma->0) =       -5.38854290


--------------------------------------------------------------------------------------------------------




--------------------------------------- Iteration      1(  11)  ---------------------------------------


    POTLOK:  cpu time    0.0030: real time    0.0031
    SETDIJ:  cpu time    0.0032: real time    0.0032
     EDDAV:  cpu time    0.2064: real time    0.2127
       DOS:  cpu time    0.0021: real time    0.0021
    --------------------------------------------
      LOOP:  cpu time    0.2146: real time    0.2211

 eigenvalue-minimisations  :  2856
 total energy-change (2. order) :-0.1388858E-04  (-0.2968089E-05)
 number of electron       9.9999998 magnetization       0.6131194
 augmentation part        6.1413137 magnetization       0.5859215

 Free energy of the ion-electron system (eV)
  ---------------------------------------------------
  alpha Z        PSCENC =        51.90250458
  Ewald energy   TEWEN  =      -970.89761834
  -Hartree energ DENC   =      -208.71547403
  -exchange      EXHF   =         0.00000000
  -V(xc)+E(xc)   XCENC  =        30.99690708
  PAW double counting   =      1201.97928802    -1271.22649430
  entropy T*S    EENTRO =        -0.00153171
  eigenvalues    EBANDS =        82.93725623
  atomic energy  EATOM  =      1077.63607467
  Solvation  Ediel_sol  =         0.00000000
  ---------------------------------------------------
  free energy    TOTEN  =        -5.38908780 eV

  energy without entropy =       -5.38755608  energy(sigma->0) =       -5.38857722


--------------------------------------------------------------------------------------------------------




 average (electrostatic) potential at core
  the test charge radii are     0.9791
  (the norm of the test charge is              1.0000)
       1 -80.6660
 
 
 
 E-fermi :  10.8905     XC(G=0): -13.8682     alpha+bet :-18.2286


 spin component 1

 k-point     1 :       0.0500    0.0500    0.0500
  band No.  band energies     occupation 
      1       1.2596      1.00000
      2       8.1639      1.00000
      3       8.2196      1.00000
      4       8.2196      1.00000
      5       9.5178      1.00000
      6       9.5178      1.00000
      7      35.2824      0.00000
      8      38.7376      0.00000
      9      39.9593      0.00000
     10      39.9593      0.00000
     11      43.9493      0.00000
     12      43.9493      0.00000

 k-point     2 :       0.1500    0.0500    0.0500
  band No.  band energies     occupation 
      1       1.8127      1.00000
      2       8.0088      1.00000
      3       8.3380      1.00000
      4       8.3552      1.00000
      5       9.4033      1.00000
      6       9.5543      1.00000
      7      33.4015      0.00000
      8      35.8859      0.00000
      9      38.6781      0.00000
     10      40.7224      0.00000
     11      43.4123      0.00000
     12      44.1684      0.00000

 k-point     3 :       0.2500    0.0500    0.0500
  band No.  band energies     occupation 
      1       3.0900      1.00000
      2       7.7888      1.00000
      3       8.4590      1.00000
      4       8.4934      1.00000
      5       9.3880      1.00000
      6       9.6921      1.00000
      7      28.2628      0.00000
      8      34.7160      0.00000
      9      38.0382      0.00000
     10      40.2789      0.00000
     11      43.0085      0.00000
     12      43.5885      0.00000

 k-point     4 :       0.3500    0.0500    0.0500
  band No.  band energies     occupation 
      1       4.6305      1.00000
      2       7.9684      1.00000
      3       8.3578      1.00000
      4       8.4135      1.00000
      5       9.7195      1.00000
      6      10.0826      1.00000
      7      23.1760      0.00000
      8      33.9797      0.00000
      9      36.9084      0.00000
     10      39.5863      0.00000
     11      41.1697      0.00000
     12      43.0269      0.00000

 k-point     5 :       0.4500    0.0500    0.0500
  band No.  band energies     occupation 
      1       5.4254      1.00000
      2       8.2012      1.00000
      3       8.2730      1.00000
      4       9.1290      1.00000
      5      10.1323      1.00000
      6      10.6642      1.03394
      7      18.9739      0.00000
      8      33.5641      0.00000
      9      36.2596      0.00000
     10      37.8765      0.00000
     11      40.7370      0.00000
     12      42.1839      0.00000

 k-point     6 :      -0.4500    0.0500    0.0500
  band No.  band energies     occupation 
      1       5.5339      1.00000
      2       8.1439      1.00000
      3       8.2375      1.00000
      4       9.6147      1.00000
      5      10.3249      1.00024
      6      11.1471     -0.03497
      7      17.4266      0.00000
      8      33.5622      0.00000
      9      36.5066      0.00000
     10      36.5948      0.00000
     11      41.4112      0.00000
     12      41.4514      0.00000

 k-point     7 :      -0.3500    0.0500    0.0500
  band No.  band energies     occupation 
      1       5.2729      1.00000
      2       8.2303      1.00000
      3       8.3287      1.00000
      4       8.6572      1.00000
      5      10.1943      1.00000
      6      10.2779      1.00007
      7      20.2159      0.00000
      8      34.0446      0.00000
      9      35.9762      0.00000
     10      37.9141      0.00000
     11      41.2334      0.00000
     12      42.7574      0.00000

 k-point     8 :      -0.2500    0.0500    0.0500
  band No.  band energies     occupation 
      1       4.1460      1.00000
      2       7.8023      1.00000
      3       8.4051      1.00000
      4       8.4653      1.00000
      5       9.6623      1.00000
      6       9.8607      1.00000
      7      24.8049      0.00000
      8      34.9198      0.00000
      9      36.1992      0.00000
     10      39.8336      0.00000
     11      41.5115      0.00000
     12      44.7041      0.00000

 k-point     9 :      -0.1500    0.0500    0.0500
  band No.  band energies     occupation 
      1       2.5998      1.00000
      2       7.8406      1.00000
      3       8.4544      1.00000
      4       8.4656      1.00000
      5       9.3635      1.00000
      6       9.6102      1.00000
      7      30.0473      0.00000
      8      35.8345      0.00000
      9      37.0183      0.00000
     10      40.7410      0.00000
     11      42.3741      0.00000
     12      46.3286      0.00000

 k-point    10 :      -0.0500    0.0500    0.0500
  band No.  band energies     occupation 
      1       1.5388      1.00000
      2       8.0642      1.00000
      3       8.2968      1.00000
      4       8.3011      1.00000
      5       9.4235      1.00000
      6       9.5619      1.00000
      7      34.6237      0.00000
      8      37.2811      0.00000
      9      38.3405      0.00000
     10      39.8304      0.00000
     11      44.0003      0.00000
     12      45.4795      0.00000

 k-point    11 :       0.1500    0.1500    0.0500
  band No.  band energies     occupation 
      1       2.0832      1.00000
      2       7.8654      1.00000
      3       8.4562      1.00000
      4       8.4603      1.00000
      5       9.2509      1.00000
      6       9.6432      1.00000
      7      33.5917      0.00000
      8      35.8408      0.00000
      9      36.3849      0.00000
     10      38.3676      0.00000
     11      44.8701      0.00000
     12      46.1528      0.00000

 k-point    12 :       0.2500    0.1500    0.0500
  band No.  band energies     occupation 
      1       3.1051      1.00000
      2       7.6057      1.00000
      3       8.5421      1.00000
      4       8.6881      1.00000
      5       9.1866      1.00000
      6       9.7946      1.00000
      7      30.4371      0.00000
      8      32.7240      0.00000
      9      36.5550      0.00000
     10      38.0796      0.00000
     11      43.1200      0.00000
     12      45.9386      0.00000

 k-point    13 :       0.3500    0.1500    0.0500
  band No.  band energies     occupation 
      1       4.5853      1.00000
      2       7.4844      1.00000
      3       8.2987      1.00000
      4       8.7164      1.00000
      5       9.6579      1.00000
      6      10.2047      1.00001
      7      25.1931      0.00000
      8      31.8706      0.00000
      9      34.9768      0.00000
     10      37.7531      0.00000
     11      44.3838      0.00000
     12      44.4977      0.00000

 k-point    14 :       0.4500    0.1500    0.0500
  band No.  band energies     occupation 
      1       5.6458      1.00000
      2       7.8642      1.00000
      3       8.1505      1.00000
      4       8.5863      1.00000
      5      10.1730      1.00000
      6      11.1999     -0.02551
      7      20.5341      0.00000
      8      31.5129      0.00000
      9      33.4352      0.00000
     10      36.7341      0.00000
     11      43.4122      0.00000
     12      45.8779      0.00000

 k-point    15 :      -0.4500    0.1500    0.0500
  band No.  band energies     occupation 
      1       5.8795      1.00000
      2       7.8516      1.00000
      3       8.4830      1.00000
      4       8.6821      1.00000
      5      10.2901      1.00009
      6      12.6635     -0.00000
      7      17.5379      0.00000
      8      31.0518      0.00000
      9      33.0607      0.00000
     10      36.4549      0.00000
     11      42.7471      0.00000
     12      45.5053      0.00000

 k-point    16 :      -0.3500    0.1500    0.0500
  band No.  band energies     occupation 
      1       5.7967      1.00000
      2       7.9399      1.00000
      3       8.3603      1.00000
      4       8.5303      1.00000
      5      10.0663      1.00000
      6      11.8273     -0.00000
      7      19.2483      0.00000
      8      30.4523      0.00000
      9      34.1497      0.00000
     10      37.2616      0.00000
     11      42.3372      0.00000
     12      45.1620      0.00000

 k-point    17 :      -0.2500    0.1500    0.0500
  band No.  band energies     occupation 
      1       5.0638      1.00000
      2       7.6340      1.00000
      3       8.1942      1.00000
      4       8.6577      1.00000
      5       9.5785      1.00000
      6      10.6448      1.03546
      7      23.5623      0.00000
      8      30.3962      0.00000
      9      35.9444      0.00000
     10      39.0387      0.00000
     11      42.2146      0.00000
     12      44.4081      0.00000

 k-point    18 :      -0.1500    0.1500    0.0500
  band No.  band energies     occupation 
      1       3.5798      1.00000
      2       7.5980      1.00000
      3       8.4403      1.00000
      4       8.7188      1.00000
      5       9.1820      1.00000
      6       9.9800      1.00000
      7      28.6555      0.00000
      8      31.0197      0.00000
      9      38.1641      0.00000
     10      39.7411      0.00000
     11      43.1614      0.00000
     12      43.9548      0.00000

 k-point    19 :      -0.0500    0.1500    0.0500
  band No.  band energies     occupation 
      1       2.3463      1.00000
      2       7.8479      1.00000
      3       8.4565      1.00000
      4       8.4731      1.00000
      5       9.2792      1.00000
      6       9.6447      1.00000
      7      31.9303      0.00000
      8      34.2850      0.00000
      9      37.9488      0.00000
     10      40.1323      0.00000
     11      43.3798      0.00000
     12      45.3319      0.00000

 k-point    20 :       0.2500    0.2500    0.0500
  band No.  band energies     occupation 
      1       3.7921      1.00000
      2       7.2874      1.00000
      3       8.7139      1.00000
      4       8.9779      1.00000
      5       9.1604      1.00000
      6       9.8876      1.00000
      7      30.9147      0.00000
      8      32.5270      0.00000
      9      33.3159      0.00000
     10      34.6208      0.00000
     11      40.0835      0.00000
     12      50.0020      0.00000

 k-point    21 :       0.3500    0.2500    0.0500
  band No.  band energies     occupation 
      1       4.9236      1.00000
      2       7.0270      1.00000
      3       8.4562      1.00000
      4       9.2618      1.00000
      5       9.6987      1.00000
      6      10.2277      1.00001
      7      27.6872      0.00000
      8      29.7613      0.00000
      9      31.6929      0.00000
     10      35.3101      0.00000
     11      40.0052      0.00000
     12      49.5677      0.00000

[...]
      4       8.9591      1.00000
      5      10.6998      1.01957
      6      10.6998      1.01957
      7      21.8095      0.00000
      8      34.5806      0.00000
      9      37.7837      0.00000
     10      37.7837      0.00000
     11      41.8668      0.00000
     12      41.8668      0.00000

 k-point   102 :       0.4500    0.3500    0.3500
  band No.  band energies     occupation 
      1       5.7496      1.00000
      2       8.6388      1.00000
      3       8.8102      1.00000
      4       9.0441      1.00000
      5      10.6241      1.03393
      6      11.6080     -0.00000
      7      20.6403      0.00000
      8      31.5776      0.00000
      9      36.0962      0.00000
     10      37.7371      0.00000
     11      42.0541      0.00000
     12      43.2218      0.00000

 k-point   103 :      -0.4500    0.3500    0.3500
  band No.  band energies     occupation 
      1       6.6575      1.00000
      2       8.0855      1.00000
      3       8.5114      1.00000
      4       9.4138      1.00000
      5      10.6178      1.03303
      6      13.3815     -0.00000
      7      19.9644      0.00000
      8      26.9361      0.00000
      9      34.4899      0.00000
     10      35.3080      0.00000
     11      45.5928      0.00000
     12      45.9263      0.00000

 k-point   104 :      -0.3500    0.3500    0.3500
  band No.  band energies     occupation 
      1       7.2720      1.00000
      2       7.4396      1.00000
      3       8.4971      1.00000
      4       9.9001      1.00000
      5      10.7412      0.97499
      6      15.8607     -0.00000
      7      19.3169      0.00000
      8      23.1791      0.00000
      9      31.5736      0.00000
     10      34.5264      0.00000
     11      49.2504      0.00000
     12      49.3209      0.00000

 k-point   105 :       0.4500    0.4500    0.3500
  band No.  band energies     occupation 
      1       5.9568      1.00000
      2       8.5458      1.00000
      3       9.0325      1.00000
      4       9.0422      1.00000
      5      11.0562      0.00292
      6      11.7131     -0.00000
      7      19.3969      0.00000
      8      32.7180      0.00000
      9      34.5991      0.00000
     10      36.0742      0.00000
     11      43.2709      0.00000
     12      43.9478      0.00000

 k-point   106 :      -0.4500    0.4500    0.3500
  band No.  band energies     occupation 
      1       6.5366      1.00000
      2       8.0877      1.00000
      3       8.7799      1.00000
      4       9.3208      1.00000
      5      10.9525      0.25090
      6      13.4065     -0.00000
      7      18.6786      0.00000
      8      29.4891      0.00000
      9      31.4266      0.00000
     10      37.5327      0.00000
     11      42.6684      0.00000
     12      47.8939      0.00000

 k-point   107 :      -0.3500    0.4500    0.3500
  band No.  band energies     occupation 
      1       7.2362      1.00000
      2       7.4869      1.00000
      3       8.4574      1.00000
      4       9.7769      1.00000
      5      10.9429      0.28621
      6      15.7959     -0.00000
      7      18.3984      0.00000
      8      25.4074      0.00000
      9      28.8159      0.00000
     10      37.8760      0.00000
     11      44.3742      0.00000
     12      51.4015      0.00000

 k-point   108 :      -0.4500   -0.4500    0.3500
  band No.  band energies     occupation 
      1       6.7347      1.00000
      2       7.8493      1.00000
      3       8.7946      1.00000
      4       9.4419      1.00000
      5      11.0254      0.04927
      6      14.3277     -0.00000
      7      18.0765      0.00000
      8      27.8599      0.00000
      9      32.4937      0.00000
     10      34.6724      0.00000
     11      46.6952      0.00000
     12      46.7562      0.00000

 k-point   109 :       0.4500    0.4500    0.4500
  band No.  band energies     occupation 
      1       5.8229      1.00000
      2       8.8234      1.00000
      3       8.8234      1.00000
      4      10.0287      1.00000
      5      11.0203      0.05914
      6      11.0203      0.05914
      7      18.3313      0.00000
      8      33.9098      0.00000
      9      37.5356      0.00000
     10      37.5356      0.00000
     11      40.6332      0.00000
     12      40.6332      0.00000

 k-point   110 :      -0.4500    0.4500    0.4500
  band No.  band energies     occupation 
      1       6.1338      1.00000
      2       8.5554      1.00000
      3       8.9697      1.00000
      4       9.4228      1.00000
      5      11.0058      0.09066
      6      12.4190     -0.00000
      7      17.8690      0.00000
      8      31.9261      0.00000
      9      35.5137      0.00000
     10      35.6830      0.00000
     11      42.7303      0.00000
     12      43.3024      0.00000


--------------------------------------------------------------------------------------------------------


 soft charge-density along one line, spin component           1
         0         1         2         3         4         5         6         7         8         9
 total charge-density along one line
 
 soft charge-density along one line, spin component           2
         0         1         2         3         4         5         6         7         8         9
 total charge-density along one line
 
 pseudopotential strength for first ion, spin component:           1
  0.381   0.000   0.000   0.000   0.000   0.000   0.000   0.000   0.000   0.000  -0.337   0.000   0.000   0.000   0.000   0.000
  0.000   0.000   0.381   0.000  -0.000   0.000   0.000   0.000   0.000   0.000   0.000   0.000  -0.337   0.000  -0.000   0.000
  0.000   0.000  -0.000   0.000   0.483   0.000  -0.000   0.000  -0.000   0.000   0.000   0.000  -0.000   0.000  -0.239   0.000
  0.000   0.000   0.000   0.000  -0.000   0.000   0.381   0.000  -0.000   0.000   0.000   0.000   0.000   0.000  -0.000   0.000
  0.000   0.000   0.000   0.000  -0.000   0.000  -0.000   0.000   0.483   0.000   0.000   0.000   0.000   0.000   0.000   0.000
 -0.337   0.000   0.000   0.000   0.000   0.000   0.000   0.000   0.000   0.000  -0.982   0.000   0.000   0.000   0.000   0.000
  0.000   0.000  -0.337   0.000  -0.000   0.000   0.000   0.000   0.000   0.000   0.000   0.000  -0.982   0.000  -0.000   0.000
  0.000   0.000  -0.000   0.000  -0.239   0.000  -0.000   0.000   0.000   0.000   0.000   0.000  -0.000   0.000  -0.888   0.000
  0.000   0.000   0.000   0.000  -0.000   0.000  -0.337   0.000  -0.000   0.000   0.000   0.000   0.000   0.000  -0.000   0.000
  0.000   0.000   0.000   0.000   0.000   0.000  -0.000   0.000  -0.239   0.000   0.000   0.000   0.000   0.000   0.000   0.000
 -0.000   0.000  -0.000   0.000  -0.000   0.000  -0.000   0.000  -0.000   0.000  -0.000   0.000  -0.000   0.000  -0.000   0.000
 -0.000   0.000  -0.000   0.000  -0.000   0.000  -0.000   0.000  -0.000   0.000  -0.000   0.000  -0.000   0.000  -0.000   0.000
 -0.000   0.000  -0.000   0.000   0.000   0.000   0.000   0.000   0.000   0.000  -0.000   0.000  -0.000   0.000   0.000   0.000
  0.000   0.000  -0.000   0.000  -0.000   0.000  -0.000   0.000   0.000   0.000   0.000   0.000  -0.000   0.000  -0.000   0.000
 -0.000   0.000   0.000   0.000   0.000   0.000  -0.000   0.000  -0.000   0.000  -0.000   0.000   0.000   0.000   0.000   0.000
 -0.000   0.000  -0.000   0.000   0.000   0.000   0.000   0.000   0.000   0.000  -0.000   0.000  -0.000   0.000   0.000   0.000
  0.000   0.000  -0.000   0.000  -0.000   0.000  -0.000   0.000   0.000   0.000   0.000   0.000  -0.000   0.000  -0.000   0.000
 -0.000   0.000   0.000   0.000   0.000   0.000  -0.000   0.000  -0.000   0.000  -0.000   0.000   0.000   0.000   0.000   0.000
 pseudopotential strength for first ion, spin component:           2
  0.993   0.000   0.000   0.000  -0.000   0.000   0.000   0.000   0.000   0.000   0.247   0.000   0.000   0.000  -0.000   0.000
  0.000   0.000   0.993   0.000   0.000   0.000   0.000   0.000  -0.000   0.000   0.000   0.000   0.247   0.000   0.000   0.000
 -0.000   0.000   0.000   0.000   0.972   0.000   0.000   0.000   0.000   0.000  -0.000   0.000   0.000   0.000   0.226   0.000
  0.000   0.000   0.000   0.000   0.000   0.000   0.993   0.000   0.000   0.000   0.000   0.000   0.000   0.000   0.000   0.000
  0.000   0.000  -0.000   0.000   0.000   0.000   0.000   0.000   0.972   0.000   0.000   0.000  -0.000   0.000   0.000   0.000
  0.247   0.000   0.000   0.000  -0.000   0.000   0.000   0.000   0.000   0.000  -0.425   0.000   0.000   0.000  -0.000   0.000
  0.000   0.000   0.247   0.000   0.000   0.000   0.000   0.000  -0.000   0.000   0.000   0.000  -0.425   0.000   0.000   0.000
 -0.000   0.000   0.000   0.000   0.226   0.000   0.000   0.000   0.000   0.000  -0.000   0.000   0.000   0.000  -0.445   0.000
  0.000   0.000   0.000   0.000   0.000   0.000   0.247   0.000   0.000   0.000   0.000   0.000   0.000   0.000   0.000   0.000
  0.000   0.000  -0.000   0.000   0.000   0.000   0.000   0.000   0.226   0.000   0.000   0.000  -0.000   0.000   0.000   0.000
 -0.000   0.000  -0.000   0.000   0.000   0.000  -0.000   0.000   0.000   0.000  -0.000   0.000  -0.000   0.000   0.000   0.000
 -0.000   0.000  -0.000   0.000   0.000   0.000  -0.000   0.000   0.000   0.000  -0.000   0.000  -0.000   0.000   0.000   0.000
 -0.000   0.000  -0.000   0.000   0.000   0.000  -0.000   0.000   0.000   0.000  -0.000   0.000  -0.000   0.000   0.000   0.000
 -0.000   0.000  -0.000   0.000  -0.000   0.000  -0.000   0.000   0.000   0.000  -0.000   0.000  -0.000   0.000  -0.000   0.000
 -0.000   0.000  -0.000   0.000   0.000   0.000  -0.000   0.000  -0.000   0.000  -0.000   0.000  -0.000   0.000   0.000   0.000
 -0.000   0.000  -0.000   0.000   0.000   0.000   0.000   0.000   0.000   0.000  -0.000   0.000  -0.000   0.000   0.000   0.000
  0.000   0.000  -0.000   0.000  -0.000   0.000  -0.000   0.000   0.000   0.000  -0.000   0.000  -0.000   0.000  -0.000   0.000
 -0.000   0.000   0.000   0.000   0.000   0.000  -0.000   0.000  -0.000   0.000  -0.000   0.000  -0.000   0.000   0.000   0.000
 total augmentation occupancy for first ion, spin component:           1
  2.944   0.000   0.000   0.000   0.000  -1.581  -0.000   0.000   0.000   0.000   0.000   0.000   0.000   0.000   0.000   0.000
  0.000   2.944   0.000   0.000   0.000  -0.000  -1.581   0.000  -0.000   0.000   0.000   0.000   0.000   0.000   0.000   0.000
  0.000   0.000   3.738   0.000   0.000  -0.000  -0.000  -1.922   0.000   0.000   0.000  -0.000   0.000   0.000   0.000   0.000
  0.000   0.000   0.000   2.944   0.000   0.000  -0.000  -0.000  -1.581  -0.000  -0.000   0.000   0.000   0.000   0.000   0.000
  0.000   0.000   0.000   0.000   3.738   0.000   0.000  -0.000   0.000  -1.922  -0.000   0.000   0.000   0.000   0.000   0.000
 -1.581  -0.000   0.000   0.000   0.000   1.935  -0.000   0.000   0.000   0.000   0.000  -0.000   0.000   0.000   0.000   0.000
 -0.000  -1.581   0.000  -0.000  -0.000  -0.000   1.935   0.000   0.000  -0.000   0.000  -0.000   0.000   0.000   0.000   0.000
  0.000   0.000  -1.922   0.000   0.000   0.000   0.000   1.938  -0.000   0.000  -0.000   0.000   0.000   0.000   0.000   0.000
  0.000   0.000  -0.000  -1.581   0.000  -0.000  -0.000  -0.000   1.935   0.000  -0.000   0.000   0.000   0.000   0.000   0.000
  0.000   0.000   0.000   0.000  -1.922  -0.000  -0.000   0.000   0.000   1.938   0.000  -0.000   0.000   0.000   0.000   0.000
  0.000   0.000   0.000  -0.000  -0.000   0.000   0.000  -0.000  -0.000   0.000   2.576  -0.373   0.000   0.000   0.000   0.000
  0.000   0.000  -0.000  -0.000   0.000   0.000  -0.000   0.000   0.000   0.000  -0.373   0.064   0.000   0.000   0.000   0.000
  0.000   0.000   0.000   0.000   0.000   0.000   0.000   0.000   0.000   0.000   0.000   0.000   0.362   0.000   0.000  -0.039
  0.000   0.000   0.000   0.000   0.000   0.000   0.000   0.000   0.000   0.000   0.000   0.000   0.000   0.362   0.000   0.000
  0.000   0.000   0.000   0.000   0.000   0.000   0.000   0.000   0.000   0.000   0.000   0.000   0.000   0.000   0.362   0.000
  0.000   0.000   0.000   0.000   0.000   0.000   0.000   0.000   0.000   0.000   0.000   0.000  -0.039   0.000   0.000   0.005
  0.000   0.000   0.000   0.000   0.000   0.000   0.000   0.000   0.000   0.000   0.000   0.000   0.000  -0.039  -0.000   0.000
  0.000   0.000   0.000   0.000   0.000   0.000   0.000   0.000   0.000   0.000   0.000   0.000  -0.000   0.000  -0.039   0.000
 total augmentation occupancy for first ion, spin component:           2
  1.094   0.000   0.000  -0.000   0.000  -0.565  -0.000   0.000   0.000   0.000  -0.000   0.000   0.000   0.000   0.000   0.000
 -0.000   1.094  -0.000   0.000   0.000   0.000  -0.565   0.000   0.000   0.000  -0.000   0.000   0.000   0.000   0.000   0.000
 -0.000  -0.000   0.606   0.000   0.000   0.000  -0.000  -0.305  -0.000   0.000  -0.000  -0.000   0.000   0.000   0.000   0.000
  0.000  -0.000   0.000   1.094  -0.000   0.000   0.000   0.000  -0.565  -0.000  -0.000  -0.000   0.000   0.000   0.000   0.000
 -0.000  -0.000   0.000   0.000   0.606   0.000   0.000  -0.000  -0.000  -0.305   0.000   0.000   0.000   0.000   0.000   0.000
 -0.565   0.000  -0.000   0.000   0.000   0.206  -0.000   0.000   0.000   0.000   0.000   0.000   0.000   0.000   0.000   0.000
  0.000  -0.565  -0.000   0.000  -0.000  -0.000   0.206  -0.000   0.000   0.000   0.000   0.000   0.000   0.000   0.000   0.000
  0.000   0.000  -0.305   0.000  -0.000  -0.000  -0.000   0.089   0.000   0.000   0.000  -0.000   0.000   0.000   0.000   0.000
  0.000   0.000   0.000  -0.565   0.000   0.000   0.000   0.000   0.206  -0.000   0.000  -0.000   0.000   0.000   0.000   0.000
  0.000   0.000  -0.000  -0.000  -0.305   0.000  -0.000   0.000  -0.000   0.089   0.000   0.000   0.000   0.000   0.000   0.000
  0.000   0.000  -0.000   0.000  -0.000   0.000   0.000   0.000   0.000  -0.000  -0.140   0.046   0.000   0.000   0.000   0.000
 -0.000  -0.000   0.000   0.000  -0.000   0.000   0.000  -0.000  -0.000   0.000   0.046  -0.010   0.000   0.000   0.000   0.000
  0.000   0.000   0.000   0.000   0.000   0.000   0.000   0.000   0.000   0.000   0.000   0.000  -0.018   0.000  -0.000   0.003
  0.000   0.000   0.000   0.000   0.000   0.000   0.000   0.000   0.000   0.000   0.000   0.000   0.000  -0.018   0.000   0.000
  0.000   0.000   0.000   0.000   0.000   0.000   0.000   0.000   0.000   0.000   0.000   0.000   0.000  -0.000  -0.018  -0.000
  0.000   0.000   0.000   0.000   0.000   0.000   0.000   0.000   0.000   0.000   0.000   0.000   0.003   0.000   0.000  -0.000
  0.000   0.000   0.000   0.000   0.000   0.000   0.000   0.000   0.000   0.000   0.000   0.000   0.000   0.003   0.000   0.000
  0.000   0.000   0.000   0.000   0.000   0.000   0.000   0.000   0.000   0.000   0.000   0.000   0.000   0.000   0.003  -0.000


------------------------ aborting loop because EDIFF is reached ----------------------------------------


    CHARGE:  cpu time    0.0041: real time    0.0041
    FORLOC:  cpu time    0.0002: real time    0.0001
    FORNL :  cpu time    0.0100: real time    0.0100
    STRESS:  cpu time    0.0389: real time    0.0391
    FORCOR:  cpu time    0.0023: real time    0.0024
    FORHAR:  cpu time    0.0004: real time    0.0004
    MIXING:  cpu time    0.0003: real time    0.0003
    OFIELD:  cpu time    0.0000: real time    0.0000

  FORCE on cell =-STRESS in cart. coord.  units (eV):
  Direction    XX          YY          ZZ          XY          YZ          ZX
  --------------------------------------------------------------------------------------
  Alpha Z    51.90250    51.90250    51.90250
  Ewald    -323.63255  -323.63255  -323.63255    -0.00000     0.00000    -0.00000
  Hartree    69.57153    69.57153    69.57153     0.00000     0.00000     0.00000
  E(xc)     -55.38095   -55.38095   -55.38095    -0.00020    -0.00020    -0.00020
  Local      10.08364    10.08364    10.08364     0.00167     0.00167     0.00167
  n-local    -5.73589    -5.00802    -7.92153     1.84172    -1.96121     0.06982
  augment   175.57805   175.57805   175.57805    -0.00148    -0.00148    -0.00148
  Kinetic    78.46410    78.50331    81.06440    -0.80279     0.71181    -0.00304
  Fock        0.00000     0.00000     0.00000     0.00000     0.00000     0.00000
  -------------------------------------------------------------------------------------
  Total       1.24436     1.24436     1.24436    -0.00000    -0.00000    -0.00000
  in kB     202.89929   202.89929   202.89929    -0.00000    -0.00000    -0.00000
  external pressure =      202.90 kB  Pullay stress =        0.00 kB


 VOLUME and BASIS-vectors are now :
 -----------------------------------------------------------------------------
  energy-cutoff  :      270.00
  volume of cell :        9.83
      direct lattice vectors                 reciprocal lattice vectors
     0.000000000  1.700000000  1.700000000    -0.294117647  0.294117647  0.294117647
     1.700000000  0.000000000  1.700000000     0.294117647 -0.294117647  0.294117647
     1.700000000  1.700000000  0.000000000     0.294117647  0.294117647 -0.294117647

  length of vectors
     2.404163056  2.404163056  2.404163056     0.509426708  0.509426708  0.509426708


 FORCES acting on ions
    electron-ion (+dipol)            ewald-force                    non-local-force                 convergence-correction
 -----------------------------------------------------------------------------------------------
   0.290E-13 0.468E-13 0.466E-13   0.251E-15 0.541E-15 -.285E-14   0.132E-22 0.132E-22 0.199E-22   0.568E-13 0.177E-13 0.827E-14
 -----------------------------------------------------------------------------------------------
   0.290E-13 0.468E-13 0.466E-13   0.251E-15 0.541E-15 -.285E-14   0.132E-22 0.132E-22 0.199E-22   0.568E-13 0.177E-13 0.827E-14
 
 
 POSITION                                       TOTAL-FORCE (eV/Angst)
 -----------------------------------------------------------------------------------
      0.00000      0.00000      0.00000        -0.000000      0.000000      0.000000
 -----------------------------------------------------------------------------------
    total drift:                                0.000000      0.000000      0.000000


--------------------------------------------------------------------------------------------------------



  FREE ENERGIE OF THE ION-ELECTRON SYSTEM (eV)
  ---------------------------------------------------
  free  energy   TOTEN  =        -5.38908780 eV

  energy  without entropy=       -5.38755608  energy(sigma->0) =       -5.38857722
 


--------------------------------------------------------------------------------------------------------


    POTLOK:  cpu time    0.0061: real time    0.0062


--------------------------------------------------------------------------------------------------------


 writing wavefunctions
     LOOP+:  cpu time    3.5747: real time    3.6571
    4ORBIT:  cpu time    0.0000: real time    0.0000

 total amount of memory used by VASP MPI-rank0    33768. kBytes
=======================================================================

   base      :      30000. kBytes
   nonl-proj :       1839. kBytes
   fftplans  :        142. kBytes
   grid      :        320. kBytes
   one-center:         31. kBytes
   wavefun   :       1436. kBytes
 
  
  
 General timing and accounting informations for this job:
 ========================================================
  
                  Total CPU time used (sec):        4.009
                            User time (sec):        3.494
                          System time (sec):        0.515
                         Elapsed time (sec):        4.134
  
                   Maximum memory used (kb):       60100.
                   Average memory used (kb):           0.
  
                          Minor page faults:        39097
                          Major page faults:            0
                 Voluntary context switches:         4012
