<?xml version="1.0" encoding="ISO-8859-1"?>
<modeling>
 <generator>
  <i name="program" type="string">vasp </i>
  <i name="version" type="string">5.4.4.18Apr17-6-g9f103f2a35  </i>
  <i name="subversion" type="string">(build Jul 01 2019 03:25:34) complex            parallel </i>
  <i name="platform" type="string">LinuxIFC </i>
  <i name="date" type="string">2020 07 09 </i>
  <i name="time" type="string">19:35:22 </i>
 </generator>
 <incar>
  <i type="string" name="SYSTEM"> fcc Ni</i>
  <i type="string" name="PREC">normal</i>
  <i type="int" name="ISPIN">     2</i>
  <i name="EDIFF">      0.00010000</i>
  <i name="ENCUT">    270.00000000</i>
  <v name="MAGMOM">      3.00000000</v>
  <v type="int" name="KPOINT_BSE">    -1     0     0     0</v>
 </incar>
 <structure name="primitive_cell" >
  <crystal>
   <varray name="basis" >
    <v>       0.00000000       1.70000000       1.70000000 </v>
    <v>       1.70000000       0.00000000       1.70000000 </v>
    <v>       1.70000000       1.70000000       0.00000000 </v>
   </varray>
   <i name="volume">      9.82600000 </i>
   <varray name="rec_basis" >
    <v>      -0.29411765       0.29411765       0.29411765 </v>
    <v>       0.29411765      -0.29411765       0.29411765 </v>
    <v>       0.29411765       0.29411765      -0.29411765 </v>
   </varray>
  </crystal>
  <varray name="positions" >
   <v>       0.00000000       0.00000000       0.00000000 </v>
  </varray>
 </structure>
 <varray name="primitive_index" >
  <v type="int" >        1 </v>
 </varray>
 <kpoints>
  <generation param="Monkhorst-Pack">
   <v type="int" name="divisions">      10       10       10 </v>
   <v name="usershift">      0.00000000       0.00000000       0.00000000 </v>
   <v name="genvec1">      0.10000000       0.00000000       0.00000000 </v>
   <v name="genvec2">      0.00000000       0.10000000       0.00000000 </v>
   <v name="genvec3">      0.00000000       0.00000000       0.10000000 </v>
   <v name="shift">      0.50000000       0.50000000       0.50000000 </v>
  </generation>
  <varray name="kpointlist" >
   <v>       0.05000000       0.05000000       0.05000000 </v>
   <v>       0.15000000       0.05000000       0.05000000 </v>
   <v>       0.25000000       0.05000000       0.05000000 </v>
   <v>       0.35000000       0.05000000       0.05000000 </v>
   <v>       0.45000000       0.05000000       0.05000000 </v>
   <v>      -0.45000000       0.05000000       0.05000000 </v>
   <v>      -0.35000000       0.05000000       0.05000000 </v>
   <v>      -0.25000000       0.05000000       0.05000000 </v>
   <v>      -0.15000000       0.05000000       0.05000000 </v>
   <v>      -0.05000000       0.05000000       0.05000000 </v>
   <v>       0.15000000       0.15000000       0.05000000 </v>
   <v>       0.25000000       0.15000000       0.05000000 </v>
   <v>       0.35000000       0.15000000       0.05000000 </v>
   <v>       0.45000000       0.15000000       0.05000000 </v>
   <v>      -0.45000000       0.15000000       0.05000000 </v>
   <v>      -0.35000000       0.15000000       0.05000000 </v>
   <v>      -0.25000000       0.15000000       0.05000000 </v>
   <v>      -0.15000000       0.15000000       0.05000000 </v>
   <v>      -0.05000000       0.15000000       0.05000000 </v>
   <v>       0.25000000       0.25000000       0.05000000 </v>
   <v>       0.35000000       0.25000000       0.05000000 </v>
   <v>       0.45000000       0.25000000       0.05000000 </v>
   <v>      -0.45000000       0.25000000       0.05000000 </v>
   <v>      -0.35000000       0.25000000       0.05000000 </v>
   <v>      -0.25000000       0.25000000       0.05000000 </v>
   <v>      -0.15000000       0.25000000       0.05000000 </v>
   <v>      -0.05000000       0.25000000       0.05000000 </v>
   <v>       0.35000000       0.35000000       0.05000000 </v>
   <v>       0.45000000       0.35000000       0.05000000 </v>
   <v>      -0.45000000       0.35000000       0.05000000 </v>
   <v>      -0.35000000       0.35000000       0.05000000 </v>
   <v>      -0.25000000       0.35000000       0.05000000 </v>
   <v>      -0.15000000       0.35000000       0.05000000 </v>
   <v>      -0.05000000       0.35000000       0.05000000 </v>
   <v>       0.45000000       0.45000000       0.05000000 </v>
   <v>      -0.45000000       0.45000000       0.05000000 </v>
   <v>      -0.35000000       0.45000000       0.05000000 </v>
   <v>      -0.25000000       0.45000000       0.05000000 </v>
   <v>      -0.15000000       0.45000000       0.05000000 </v>
   <v>      -0.05000000       0.45000000       0.05000000 </v>
   <v>      -0.45000000      -0.45000000       0.05000000 </v>
   <v>      -0.35000000      -0.45000000       0.05000000 </v>
   <v>      -0.25000000      -0.45000000       0.05000000 </v>
   <v>      -0.15000000      -0.45000000       0.05000000 </v>
   <v>      -0.35000000      -0.35000000       0.05000000 </v>
   <v>      -0.25000000      -0.35000000       0.05000000 </v>
   <v>      -0.15000000      -0.35000000       0.05000000 </v>
   <v>      -0.25000000      -0.25000000       0.05000000 </v>
   <v>      -0.15000000      -0.25000000       0.05000000 </v>
   <v>      -0.15000000      -0.15000000       0.05000000 </v>
   <v>       0.15000000       0.15000000       0.15000000 </v>
   <v>       0.25000000       0.15000000       0.15000000 </v>
   <v>       0.35000000       0.15000000       0.15000000 </v>
   <v>       0.45000000       0.15000000       0.15000000 </v>
   <v>      -0.45000000       0.15000000       0.15000000 </v>
   <v>      -0.35000000       0.15000000       0.15000000 </v>
   <v>      -0.25000000       0.15000000       0.15000000 </v>
   <v>      -0.15000000       0.15000000       0.15000000 </v>
   <v>       0.25000000       0.25000000       0.15000000 </v>
   <v>       0.35000000       0.25000000       0.15000000 </v>
   <v>       0.45000000       0.25000000       0.15000000 </v>
   <v>      -0.45000000       0.25000000       0.15000000 </v>
   <v>      -0.35000000       0.25000000       0.15000000 </v>
   <v>      -0.25000000       0.25000000       0.15000000 </v>
   <v>      -0.15000000       0.25000000       0.15000000 </v>
   <v>       0.35000000       0.35000000       0.15000000 </v>
   <v>       0.45000000       0.35000000       0.15000000 </v>
   <v>      -0.45000000       0.35000000       0.15000000 </v>
   <v>      -0.35000000       0.35000000       0.15000000 </v>
   <v>      -0.25000000       0.35000000       0.15000000 </v>
   <v>      -0.15000000       0.35000000       0.15000000 </v>
   <v>       0.45000000       0.45000000       0.15000000 </v>
   <v>      -0.45000000       0.45000000       0.15000000 </v>
   <v>      -0.35000000       0.45000000       0.15000000 </v>
   <v>      -0.25000000       0.45000000       0.15000000 </v>
   <v>      -0.15000000       0.45000000       0.15000000 </v>
   <v>      -0.45000000      -0.45000000       0.15000000 </v>
   <v>      -0.35000000      -0.45000000       0.15000000 </v>
   <v>      -0.25000000      -0.45000000       0.15000000 </v>
   <v>      -0.35000000      -0.35000000       0.15000000 </v>
   <v>      -0.25000000      -0.35000000       0.15000000 </v>
   <v>      -0.25000000      -0.25000000       0.15000000 </v>
   <v>       0.25000000       0.25000000       0.25000000 </v>
   <v>       0.35000000       0.25000000       0.25000000 </v>
   <v>       0.45000000       0.25000000       0.25000000 </v>
   <v>      -0.45000000       0.25000000       0.25000000 </v>
   <v>      -0.35000000       0.25000000       0.25000000 </v>
   <v>      -0.25000000       0.25000000       0.25000000 </v>
   <v>       0.35000000       0.35000000       0.25000000 </v>
   <v>       0.45000000       0.35000000       0.25000000 </v>
   <v>      -0.45000000       0.35000000       0.25000000 </v>
   <v>      -0.35000000       0.35000000       0.25000000 </v>
   <v>      -0.25000000       0.35000000       0.25000000 </v>
   <v>       0.45000000       0.45000000       0.25000000 </v>
   <v>      -0.45000000       0.45000000       0.25000000 </v>
   <v>      -0.35000000       0.45000000       0.25000000 </v>
   <v>      -0.25000000       0.45000000       0.25000000 </v>
   <v>      -0.45000000      -0.45000000       0.25000000 </v>
   <v>      -0.35000000      -0.45000000       0.25000000 </v>
   <v>      -0.35000000      -0.35000000       0.25000000 </v>
   <v>       0.35000000       0.35000000       0.35000000 </v>
   <v>       0.45000000       0.35000000       0.35000000 </v>
   <v>      -0.45000000       0.35000000       0.35000000 </v>
   <v>      -0.35000000       0.35000000       0.35000000 </v>
   <v>       0.45000000       0.45000000       0.35000000 </v>
   <v>      -0.45000000       0.45000000       0.35000000 </v>
   <v>      -0.35000000       0.45000000       0.35000000 </v>
   <v>      -0.45000000      -0.45000000       0.35000000 </v>
   <v>       0.45000000       0.45000000       0.45000000 </v>
   <v>      -0.45000000       0.45000000       0.45000000 </v>
  </varray>
  <varray name="weights" >
   <v>       0.00200000 </v>
   <v>       0.00600000 </v>
   <v>       0.00600000 </v>
   <v>       0.00600000 </v>
   <v>       0.00600000 </v>
   <v>       0.00600000 </v>
   <v>       0.00600000 </v>
   <v>       0.00600000 </v>
   <v>       0.00600000 </v>
   <v>       0.00600000 </v>
   <v>       0.00600000 </v>
   <v>       0.01200000 </v>
   <v>       0.01200000 </v>
   <v>       0.01200000 </v>
   <v>       0.01200000 </v>
   <v>       0.01200000 </v>
   <v>       0.01200000 </v>
   <v>       0.01200000 </v>
   <v>       0.01200000 </v>
   <v>       0.00600000 </v>
   <v>       0.01200000 </v>
   <v>       0.01200000 </v>
   <v>       0.01200000 </v>
   <v>       0.01200000 </v>
   <v>       0.01200000 </v>
   <v>       0.01200000 </v>
   <v>       0.01200000 </v>
   <v>       0.00600000 </v>
   <v>       0.01200000 </v>
   <v>       0.01200000 </v>
   <v>       0.01200000 </v>
   <v>       0.01200000 </v>
   <v>       0.01200000 </v>
   <v>       0.01200000 </v>
   <v>       0.00600000 </v>
   <v>       0.01200000 </v>
   <v>       0.01200000 </v>
   <v>       0.01200000 </v>
   <v>       0.01200000 </v>
   <v>       0.01200000 </v>
   <v>       0.00600000 </v>
   <v>       0.01200000 </v>
   <v>       0.01200000 </v>
   <v>       0.01200000 </v>
   <v>       0.00600000 </v>
   <v>       0.01200000 </v>
   <v>       0.01200000 </v>
   <v>       0.00600000 </v>
   <v>       0.01200000 </v>
   <v>       0.00600000 </v>
   <v>       0.00200000 </v>
   <v>       0.00600000 </v>
   <v>       0.00600000 </v>
   <v>       0.00600000 </v>
   <v>       0.00600000 </v>
   <v>       0.00600000 </v>
   <v>       0.00600000 </v>
   <v>       0.00600000 </v>
   <v>       0.00600000 </v>
   <v>       0.01200000 </v>
   <v>       0.01200000 </v>
   <v>       0.01200000 </v>
   <v>       0.01200000 </v>
   <v>       0.01200000 </v>
   <v>       0.01200000 </v>
   <v>       0.00600000 </v>
   <v>       0.01200000 </v>
   <v>       0.01200000 </v>
   <v>       0.01200000 </v>
   <v>       0.01200000 </v>
   <v>       0.01200000 </v>
   <v>       0.00600000 </v>
   <v>       0.01200000 </v>
   <v>       0.01200000 </v>
   <v>       0.01200000 </v>
   <v>       0.01200000 </v>
   <v>       0.00600000 </v>
   <v>       0.01200000 </v>
   <v>       0.01200000 </v>
   <v>       0.00600000 </v>
   <v>       0.01200000 </v>
   <v>       0.00600000 </v>
   <v>       0.00200000 </v>
   <v>       0.00600000 </v>
   <v>       0.00600000 </v>
   <v>       0.00600000 </v>
   <v>       0.00600000 </v>
   <v>       0.00600000 </v>
   <v>       0.00600000 </v>
   <v>       0.01200000 </v>
   <v>       0.01200000 </v>
   <v>       0.01200000 </v>
   <v>       0.01200000 </v>
   <v>       0.00600000 </v>
   <v>       0.01200000 </v>
   <v>       0.01200000 </v>
   <v>       0.01200000 </v>
   <v>       0.00600000 </v>
   <v>       0.01200000 </v>
   <v>       0.00600000 </v>
   <v>       0.00200000 </v>
   <v>       0.00600000 </v>
   <v>       0.00600000 </v>
   <v>       0.00600000 </v>
   <v>       0.00600000 </v>
   <v>       0.01200000 </v>
   <v>       0.01200000 </v>
   <v>       0.00600000 </v>
   <v>       0.00200000 </v>
   <v>       0.00600000 </v>
  </varray>
 </kpoints>
 <parameters>
  <separator name="general" >
   <i type="string" name="SYSTEM">fcc Ni</i>
   <i type="logical" name="LCOMPAT"> F  </i>
  </separator>
  <separator name="electronic" >
   <i type="string" name="PREC">normal</i>
   <i name="ENMAX">    270.00000000</i>
   <i name="ENAUG">    544.56500000</i>
   <i name="EDIFF">      0.00010000</i>
   <i type="int" name="IALGO">    38</i>
   <i type="int" name="IWAVPR">    10</i>
   <i type="int" name="NBANDS">    12</i>
   <i name="NELECT">     10.00000000</i>
   <i type="int" name="TURBO">     0</i>
   <i type="int" name="IRESTART">     0</i>
   <i type="int" name="NREBOOT">     0</i>
   <i type="int" name="NMIN">     0</i>
   <i name="EREF">      0.00000000</i>
   <separator name="electronic smearing" >
    <i type="int" name="ISMEAR">     1</i>
    <i name="SIGMA">      0.20000000</i>
    <i name="KSPACING">      0.50000000</i>
    <i type="logical" name="KGAMMA"> T  </i>
   </separator>
   <separator name="electronic projectors" >
    <i type="logical" name="LREAL"> F  </i>
    <v name="ROPT">      0.00000000</v>
    <i type="int" name="LMAXPAW">  -100</i>
    <i type="int" name="LMAXMIX">     2</i>
    <i type="logical" name="NLSPLINE"> F  </i>
   </separator>
   <separator name="electronic startup" >
    <i type="int" name="ISTART">     0</i>
    <i type="int" name="ICHARG">     2</i>
    <i type="int" name="INIWAV">     1</i>
   </separator>
   <separator name="electronic spin" >
    <i type="int" name="ISPIN">     2</i>
    <i type="logical" name="LNONCOLLINEAR"> F  </i>
    <v name="MAGMOM">      3.00000000</v>
    <i name="NUPDOWN">     -1.00000000</i>
    <i type="logical" name="LSORBIT"> F  </i>
    <v name="SAXIS">      0.00000000      0.00000000      1.00000000</v>
    <i type="logical" name="LSPIRAL"> F  </i>
    <v name="QSPIRAL">      0.00000000      0.00000000      0.00000000</v>
    <i type="logical" name="LZEROZ"> F  </i>
   </separator>
   <separator name="electronic exchange-correlation" >
    <i type="logical" name="LASPH"> F  </i>
    <i type="logical" name="LMETAGGA"> F  </i>
   </separator>
   <separator name="electronic convergence" >
    <i type="int" name="NELM">    60</i>
    <i type="int" name="NELMDL">    -5</i>
    <i type="int" name="NELMIN">     2</i>
    <i name="ENINI">    270.00000000</i>
    <separator name="electronic convergence detail" >
     <i type="logical" name="LDIAG"> T  </i>
     <i type="logical" name="LSUBROT"> F  </i>
     <i name="WEIMIN">      0.00000000</i>
     <i name="EBREAK">      0.00000208</i>
     <i name="DEPER">      0.30000000</i>
     <i type="int" name="NRMM">     4</i>
     <i name="TIME">      0.40000000</i>
    </separator>
   </separator>
   <separator name="electronic mixer" >
    <i name="AMIX">      0.40000000</i>
    <i name="BMIX">      1.00000000</i>
    <i name="AMIN">      0.10000000</i>
    <i name="AMIX_MAG">      1.60000000</i>
    <i name="BMIX_MAG">      1.00000000</i>
    <separator name="electronic mixer details" >
     <i type="int" name="IMIX">     4</i>
     <i type="logical" name="MIXFIRST"> F  </i>
     <i type="int" name="MAXMIX">   -45</i>
     <i name="WC">    100.00000000</i>
     <i type="int" name="INIMIX">     1</i>
     <i type="int" name="MIXPRE">     1</i>
     <i type="int" name="MREMOVE">     5</i>
    </separator>
   </separator>
   <separator name="electronic dipolcorrection" >
    <i type="logical" name="LDIPOL"> F  </i>
    <i type="logical" name="LMONO"> F  </i>
    <i type="int" name="IDIPOL">     0</i>
    <i name="EPSILON">      1.00000000</i>
    <v name="DIPOL">   -100.00000000   -100.00000000   -100.00000000</v>
    <i name="EFIELD">      0.00000000</i>
   </separator>
  </separator>
  <separator name="grids" >
   <i type="int" name="NGX">    10</i>
   <i type="int" name="NGY">    10</i>
   <i type="int" name="NGZ">    10</i>
   <i type="int" name="NGXF">    20</i>
   <i type="int" name="NGYF">    20</i>
   <i type="int" name="NGZF">    20</i>
   <i type="logical" name="ADDGRID"> F  </i>
  </separator>
  <separator name="ionic" >
   <i type="int" name="NSW">     0</i>
   <i type="int" name="IBRION">    -1</i>
   <i type="int" name="MDALGO">     0</i>
   <i type="int" name="ISIF">     2</i>
   <i name="PSTRESS">      0.00000000</i>
   <i name="EDIFFG">      0.00100000</i>
   <i type="int" name="NFREE">     0</i>
   <i name="POTIM">      0.50000000</i>
   <i name="SMASS">     -3.00000000</i>
   <i name="SCALEE">      1.00000000</i>
  </separator>
  <separator name="ionic md" >
   <i name="TEBEG">      0.00010000</i>
   <i name="TEEND">      0.00010000</i>
   <i type="int" name="NBLOCK">     1</i>
   <i type="int" name="KBLOCK">     1</i>
   <i type="int" name="NPACO">   256</i>
   <i name="APACO">     16.00000000</i>
  </separator>
  <separator name="symmetry" >
   <i type="int" name="ISYM">     2</i>
   <i name="SYMPREC">      0.00001000</i>
  </separator>
  <separator name="dos" >
   <i type="int" name="LORBIT">     0</i>
   <v name="RWIGS">     -1.00000000</v>
   <i type="int" name="NEDOS">   301</i>
   <i name="EMIN">     10.00000000</i>
   <i name="EMAX">    -10.00000000</i>
   <i name="EFERMI">      0.00000000</i>
  </separator>
  <separator name="writing" >
   <i type="int" name="NWRITE">     2</i>
   <i type="logical" name="LWAVE"> T  </i>
   <i type="logical" name="LDOWNSAMPLE"> F  </i>
   <i type="logical" name="LCHARG"> T  </i>
   <i type="logical" name="LPARD"> F  </i>
   <i type="logical" name="LVTOT"> F  </i>
   <i type="logical" name="LVHAR"> F  </i>
   <i type="logical" name="LELF"> F  </i>
   <i type="logical" name="LOPTICS"> F  </i>
   <v name="STM">      0.00000000      0.00000000      0.00000000      0.00000000      0.00000000      0.00000000      0.00000000</v>
  </separator>
  <separator name="performance" >
   <i type="int" name="NPAR">     4</i>
   <i type="int" name="NSIM">     4</i>
   <i type="int" name="NBLK">    -1</i>
   <i type="logical" name="LPLANE"> T  </i>
   <i type="logical" name="LSCALAPACK"> T  </i>
   <i type="logical" name="LSCAAWARE"> F  </i>
   <i type="logical" name="LSCALU"> F  </i>
   <i type="logical" name="LASYNC"> F  </i>
   <i type="logical" name="LORBITALREAL"> F  </i>
  </separator>
  <separator name="miscellaneous" >
   <i type="int" name="IDIOT">     3</i>
   <i type="int" name="ISPECIAL">     0</i>
   <i type="logical" name="LMUSIC"> F  </i>
   <v name="POMASS">     58.69000000</v>
   <v name="DARWINR">      0.00000000</v>
   <v name="DARWINV">      1.00000000</v>
   <i type="logical" name="LCORR"> T  </i>
  </separator>
  <i type="logical" name="GGA_COMPAT"> T  </i>
  <i type="logical" name="LBERRY"> F  </i>
  <i type="int" name="ICORELEVEL">     0</i>
  <i type="logical" name="LDAU"> F  </i>
  <i type="int" name="I_CONSTRAINED_M">     0</i>
  <separator name="electronic exchange-correlation" >
   <i type="string" name="GGA">--</i>
   <i type="int" name="VOSKOWN">     0</i>
   <i type="logical" name="LHFCALC"> F  </i>
   <i type="string" name="PRECFOCK"></i>
   <i type="logical" name="LSYMGRAD"> F  </i>
   <i type="logical" name="LHFONE"> F  </i>
   <i type="logical" name="LRHFCALC"> F  </i>
   <i type="logical" name="LTHOMAS"> F  </i>
   <i type="logical" name="LMODELHF"> F  </i>
   <i name="ENCUT4O">     -1.00000000</i>
   <i type="int" name="EXXOEP">     0</i>
   <i type="int" name="FOURORBIT">     0</i>
   <i name="AEXX">      0.00000000</i>
   <i name="HFALPHA">      0.00000000</i>
   <i name="MCALPHA">      0.00000000</i>
   <i name="ALDAX">      1.00000000</i>
   <i name="AGGAX">      1.00000000</i>
   <i name="ALDAC">      1.00000000</i>
   <i name="AGGAC">      1.00000000</i>
   <i type="int" name="NKREDX">     1</i>
   <i type="int" name="NKREDY">     1</i>
   <i type="int" name="NKREDZ">     1</i>
   <i type="logical" name="SHIFTRED"> F  </i>
   <i type="logical" name="ODDONLY"> F  </i>
   <i type="logical" name="EVENONLY"> F  </i>
   <i type="int" name="LMAXFOCK">     0</i>
   <i type="int" name="NMAXFOCKAE">     0</i>
   <i type="logical" name="LFOCKAEDFT"> F  </i>
   <i name="HFSCREEN">      0.00000000</i>
   <i name="HFSCREENC">      0.00000000</i>
   <i type="int" name="NBANDSGWLOW">     0</i>
  </separator>
  <separator name="vdW DFT" >
   <i type="logical" name="LUSE_VDW"> F  </i>
   <i name="Zab_VDW">     -0.84910000</i>
   <i name="PARAM1">      0.12340000</i>
   <i name="PARAM2">      1.00000000</i>
   <i name="PARAM3">      0.00000000</i>
  </separator>
  <separator name="model GW" >
   <i type="int" name="MODEL_GW">     0</i>
   <i name="MODEL_EPS0">      5.89560000</i>
   <i name="MODEL_ALPHA">      1.00000000</i>
  </separator>
  <separator name="linear response parameters" >
   <i type="logical" name="LEPSILON"> F  </i>
   <i type="logical" name="LRPA"> F  </i>
   <i type="logical" name="LNABLA"> F  </i>
   <i type="logical" name="LVEL"> F  </i>
   <i type="int" name="KINTER">     0</i>
   <i name="CSHIFT">      0.10000000</i>
   <i name="OMEGAMAX">     -1.00000000</i>
   <i name="DEG_THRESHOLD">      0.00200000</i>
   <i name="RTIME">     -0.10000000</i>
   <i name="WPLASMAI">      0.00000000</i>
   <v name="DFIELD">      0.00000000      0.00000000      0.00000000</v>
   <v name="WPLASMA">      0.00000000      0.00000000      0.00000000      0.00000000      0.00000000      0.00000000      0.00000000      0.00000000      0.00000000</v>
  </separator>
  <separator name="orbital magnetization" >
   <i type="logical" name="NUCIND"> F  </i>
   <v name="MAGPOS">      0.00000000      0.00000000      0.00000000</v>
   <i type="logical" name="LNICSALL"> T  </i>
   <i type="logical" name="ORBITALMAG"> F  </i>
   <i type="logical" name="LMAGBLOCH"> F  </i>
   <i type="logical" name="LCHIMAG"> F  </i>
   <i type="logical" name="LGAUGE"> T  </i>
   <i type="int" name="MAGATOM">     0</i>
   <v name="MAGDIPOL">      0.00000000      0.00000000      0.00000000</v>
   <v name="AVECCONST">      0.00000000      0.00000000      0.00000000</v>
  </separator>
  <separator name="response functions" >
   <i type="logical" name="LADDER"> F  </i>
   <i type="logical" name="LRPAFORCE"> F  </i>
   <i type="logical" name="LFXC"> F  </i>
   <i type="logical" name="LHARTREE"> T  </i>
   <i type="int" name="IBSE">     0</i>
   <v type="int" name="KPOINT">    -1     0     0     0</v>
   <i type="logical" name="LTCTE"> F  </i>
   <i type="logical" name="LTETE"> F  </i>
   <i type="logical" name="LTRIPLET"> F  </i>
   <i type="logical" name="LFXCEPS"> F  </i>
   <i type="logical" name="LFXHEG"> F  </i>
   <i type="int" name="NATURALO">     2</i>
   <i type="logical" name="L2ORDER"> F  </i>
   <i type="logical" name="LMP2LT"> F  </i>
   <i type="logical" name="LUSEW"> F  </i>
   <i name="ENCUTGW">     -2.00000000</i>
   <i name="ENCUTGWSOFT">     -2.00000000</i>
   <i name="ENCUTLF">     -1.00000000</i>
   <i type="int" name="LMAXMP2">    -1</i>
   <i name="SCISSOR">      0.00000000</i>
   <i type="int" name="NOMEGA">     0</i>
   <i type="int" name="NOMEGAR">     0</i>
   <i type="int" name="NBANDSGW">    -1</i>
   <i type="int" name="NBANDSO">    -1</i>
   <i type="int" name="NBANDSV">    -1</i>
   <i type="int" name="NELM">     1</i>
   <i type="int" name="NELMHF">     1</i>
   <i type="int" name="DIM">     3</i>
   <i type="int" name="ANTIRES">     0</i>
   <i name="OMEGAMAX">    -30.00000000</i>
   <i name="OMEGAMIN">    -30.00000000</i>
   <i name="OMEGATL">   -200.00000000</i>
   <i type="int" name="OMEGAGRID">   140</i>
   <i name="CSHIFT">     -0.10000000</i>
   <i type="logical" name="SELFENERGY"> F  </i>
   <i type="logical" name="LSPECTRAL"> F  </i>
   <i type="logical" name="LSPECTRALGW"> F  </i>
   <i type="logical" name="LSINGLES"> F  </i>
   <i type="logical" name="LFERMIGW"> F  </i>
   <i type="logical" name="ODDONLYGW"> F  </i>
   <i type="logical" name="EVENONLYGW"> F  </i>
   <i type="int" name="NKREDLFX">     1</i>
   <i type="int" name="NKREDLFY">     1</i>
   <i type="int" name="NKREDLFZ">     1</i>
   <i type="int" name="MAXMEM">  2800</i>
   <i type="int" name="TELESCOPE">     0</i>
   <i type="int" name="TAUPAR">     1</i>
   <i type="int" name="OMEGAPAR">    -1</i>
   <i name="LAMBDA">      1.00000000</i>
  </separator>
  <separator name="External order field" >
   <i name="OFIELD_KAPPA">      0.00000000</i>
   <v name="OFIELD_K">      0.00000000      0.00000000      0.00000000</v>
   <i name="OFIELD_Q6_NEAR">      0.00000000</i>
   <i name="OFIELD_Q6_FAR">      0.00000000</i>
   <i name="OFIELD_A">      0.00000000</i>
  </separator>
 </parameters>
 <atominfo>
  <atoms>       1 </atoms>
  <types>       1 </types>
  <array name="atoms" >
   <dimension dim="1">ion</dimension>
   <field type="string">element</field>
   <field type="int">atomtype</field>
   <set>
    <rc><c>Ni</c><c>   1</c></rc>
   </set>
  </array>
  <array name="atomtypes" >
   <dimension dim="1">type</dimension>
   <field type="int">atomspertype</field>
   <field type="string">element</field>
   <field>mass</field>
   <field>valence</field>
   <field type="string">pseudopotential</field>
   <set>
    <rc><c>   1</c><c>Ni</c><c>     58.69000000</c><c>     10.00000000</c><c>  PAW_PBE Ni 02Aug2007                  </c></rc>
   </set>
  </array>
 </atominfo>
 <structure name="initialpos" >
  <crystal>
   <varray name="basis" >
    <v>       0.00000000       1.70000000       1.70000000 </v>
    <v>       1.70000000       0.00000000       1.70000000 </v>
    <v>       1.70000000       1.70000000       0.00000000 </v>
   </varray>
   <i name="volume">      9.82600000 </i>
   <varray name="rec_basis" >
    <v>      -0.29411765       0.29411765       0.29411765 </v>
    <v>       0.29411765      -0.29411765       0.29411765 </v>
    <v>       0.29411765       0.29411765      -0.29411765 </v>
   </varray>
  </crystal>
  <varray name="positions" >
   <v>       0.00000000       0.00000000       0.00000000 </v>
  </varray>
 </structure>
 <calculation>
  <scstep>
   <time name="dav">    0.33    0.34</time>
   <time name="total">    0.34    0.35</time>
   <energy>
    <i name="alphaZ">     51.90250458 </i>
    <i name="ewald">   -970.89761834 </i>
    <i name="hartreedc">   -229.87206546 </i>
    <i name="XCdc">     33.06754538 </i>
    <i name="pawpsdc">    961.92645289 </i>
    <i name="pawaedc">  -1028.66799202 </i>
    <i name="eentropy">      0.00005273 </i>
    <i name="bandstr">    123.74665883 </i>
    <i name="atom">   1077.63607467 </i>
    <i name="e_fr_energy">     18.84161325 </i>
    <i name="e_wo_entrp">     18.84156052 </i>
    <i name="e_0_energy">     18.84159567 </i>
   </energy>
  </scstep>
  <scstep>
   <time name="dav">    0.31    0.31</time>
   <time name="total">    0.31    0.32</time>
   <energy>
    <i name="e_fr_energy">     -5.29134000 </i>
    <i name="e_wo_entrp">     -5.29027998 </i>
    <i name="e_0_energy">     -5.29098666 </i>
   </energy>
  </scstep>
  <scstep>
   <time name="dav">    0.31    0.32</time>
   <time name="total">    0.31    0.32</time>
   <energy>
    <i name="e_fr_energy">     -5.69747628 </i>
    <i name="e_wo_entrp">     -5.69609388 </i>
    <i name="e_0_energy">     -5.69701548 </i>
   </energy>
  </scstep>
  <scstep>
   <time name="dav">    0.31    0.31</time>
   <time name="total">    0.31    0.31</time>
   <energy>
    <i name="e_fr_energy">     -5.69942098 </i>
    <i name="e_wo_entrp">     -5.69803589 </i>
    <i name="e_0_energy">     -5.69895928 </i>
   </energy>
  </scstep>
  <scstep>
   <time name="dav">    0.31    0.31</time>
   <time name="total">    0.31    0.32</time>
   <energy>
    <i name="e_fr_energy">     -5.69944560 </i>
    <i name="e_wo_entrp">     -5.69806046 </i>
    <i name="e_0_energy">     -5.69898389 </i>
   </energy>
  </scstep>
  <scstep>
   <time name="dav">    0.33    0.34</time>
   <time name="total">    0.35    0.35</time>
   <energy>
    <i name="e_fr_energy">     -5.65715275 </i>
    <i name="e_wo_entrp">     -5.65278304 </i>
    <i name="e_0_energy">     -5.65569618 </i>
   </energy>
  </scstep>
  <scstep>
   <time name="dav">    0.33    0.34</time>
   <time name="total">    0.34    0.35</time>
   <energy>
    <i name="e_fr_energy">     -5.40718205 </i>
    <i name="e_wo_entrp">     -5.40597396 </i>
    <i name="e_0_energy">     -5.40677935 </i>
   </energy>
  </scstep>
  <scstep>
   <time name="dav">    0.30    0.31</time>
   <time name="total">    0.32    0.32</time>
   <energy>
    <i name="e_fr_energy">     -5.39310467 </i>
    <i name="e_wo_entrp">     -5.39180163 </i>
    <i name="e_0_energy">     -5.39267032 </i>
   </energy>
  </scstep>
  <scstep>
   <time name="dav">    0.34    0.35</time>
   <time name="total">    0.36    0.36</time>
   <energy>
    <i name="e_fr_energy">     -5.38957324 </i>
    <i name="e_wo_entrp">     -5.38799067 </i>
    <i name="e_0_energy">     -5.38904572 </i>
   </energy>
  </scstep>
  <scstep>
   <time name="dav">    0.25    0.25</time>
   <time name="total">    0.26    0.27</time>
   <energy>
    <i name="e_fr_energy">     -5.38907391 </i>
    <i name="e_wo_entrp">     -5.38748088 </i>
    <i name="e_0_energy">     -5.38854290 </i>
   </energy>
  </scstep>
  <scstep>
   <time name="dav">    0.21    0.21</time>
   <time name="total">    0.21    0.22</time>
   <energy>
    <i name="alphaZ">     51.90250458 </i>
    <i name="ewald">   -970.89761834 </i>
    <i name="hartreedc">   -208.71547403 </i>
    <i name="XCdc">     30.99690708 </i>
    <i name="pawpsdc">   1201.97928802 </i>
    <i name="pawaedc">  -1271.22649430 </i>
    <i name="eentropy">     -0.00153171 </i>
    <i name="bandstr">     82.93725623 </i>
    <i name="atom">   1077.63607467 </i>
    <i name="e_fr_energy">     -5.38908780 </i>
    <i name="e_wo_entrp">     -5.38755608 </i>
    <i name="e_0_energy">     -5.38857722 </i>
   </energy>
  </scstep>
  <structure>
   <crystal>
    <varray name="basis" >
     <v>       0.00000000       1.70000000       1.70000000 </v>
     <v>       1.70000000       0.00000000       1.70000000 </v>
     <v>       1.70000000       1.70000000       0.00000000 </v>
    </varray>
    <i name="volume">      9.82600000 </i>
    <varray name="rec_basis" >
     <v>      -0.29411765       0.29411765       0.29411765 </v>
     <v>       0.29411765      -0.29411765       0.29411765 </v>
     <v>       0.29411765       0.29411765      -0.29411765 </v>
    </varray>
   </crystal>
   <varray name="positions" >
    <v>       0.00000000       0.00000000       0.00000000 </v>
   </varray>
  </structure>
  <varray name="forces" >
   <v>      -0.00000000       0.00000000       0.00000000 </v>
  </varray>
  <varray name="stress" >
   <v>     202.89928632       0.00000000      -0.00000000 </v>
   <v>      -0.00000000     202.89928632      -0.00000000 </v>
   <v>      -0.00000000      -0.00000000     202.89928632 </v>
  </varray>
  <energy>
   <i name="e_fr_energy">     -5.38908780 </i>
   <i name="e_wo_entrp">     -5.38857722 </i>
   <i name="e_0_energy">     -0.00153171 </i>
  </energy>
  <time name="totalsc">    3.57    3.66</time>
  <eigenvalues>
   <array>
    <dimension dim="1">band</dimension>
    <dimension dim="2">kpoint</dimension>
    <dimension dim="3">spin</dimension>
    <field>eigene</field>
    <field>occ</field>
    <set>
     <set comment="spin 1">
      <set comment="kpoint 1">
       <r>    1.2596    1.0000 </r>
       <r>    8.1639    1.0000 </r>
       <r>    8.2196    1.0000 </r>
       <r>    8.2196    1.0000 </r>
       <r>    9.5178    1.0000 </r>
       <r>    9.5178    1.0000 </r>
       <r>   35.2824    0.0000 </r>
       <r>   38.7376    0.0000 </r>
       <r>   39.9593    0.0000 </r>
       <r>   39.9593    0.0000 </r>
       <r>   43.9493    0.0000 </r>
       <r>   43.9493    0.0000 </r>
      </set>
      <set comment="kpoint 2">
       <r>    1.8127    1.0000 </r>
       <r>    8.0088    1.0000 </r>
       <r>    8.3380    1.0000 </r>
       <r>    8.3552    1.0000 </r>
       <r>    9.4033    1.0000 </r>
       <r>    9.5543    1.0000 </r>
       <r>   33.4015    0.0000 </r>
       <r>   35.8859    0.0000 </r>
       <r>   38.6781    0.0000 </r>
       <r>   40.7224    0.0000 </r>
       <r>   43.4123    0.0000 </r>
       <r>   44.1684    0.0000 </r>
      </set>
      <set comment="kpoint 3">
       <r>    3.0900    1.0000 </r>
       <r>    7.7888    1.0000 </r>
       <r>    8.4590    1.0000 </r>
       <r>    8.4934    1.0000 </r>
       <r>    9.3880    1.0000 </r>
       <r>    9.6921    1.0000 </r>
       <r>   28.2628    0.0000 </r>
       <r>   34.7160    0.0000 </r>
       <r>   38.0382    0.0000 </r>
       <r>   40.2789    0.0000 </r>
       <r>   43.0085    0.0000 </r>
       <r>   43.5885    0.0000 </r>
      </set>
      <set comment="kpoint 4">
       <r>    4.6305    1.0000 </r>
       <r>    7.9684    1.0000 </r>
       <r>    8.3578    1.0000 </r>
       <r>    8.4135    1.0000 </r>
       <r>    9.7195    1.0000 </r>
       <r>   10.0826    1.0000 </r>
       <r>   23.1760    0.0000 </r>
       <r>   33.9797    0.0000 </r>
       <r>   36.9084    0.0000 </r>
       <r>   39.5863    0.0000 </r>
       <r>   41.1697    0.0000 </r>
       <r>   43.0269    0.0000 </r>
      </set>
      <set comment="kpoint 5">
       <r>    5.4254    1.0000 </r>
       <r>    8.2012    1.0000 </r>
       <r>    8.2730    1.0000 </r>
       <r>    9.1290    1.0000 </r>
       <r>   10.1323    1.0000 </r>
       <r>   10.6642    1.0339 </r>
       <r>   18.9739    0.0000 </r>
       <r>   33.5641    0.0000 </r>
       <r>   36.2596    0.0000 </r>
       <r>   37.8765    0.0000 </r>
       <r>   40.7370    0.0000 </r>
       <r>   42.1839    0.0000 </r>
      </set>
      <set comment="kpoint 6">
       <r>    5.5339    1.0000 </r>
       <r>    8.1439    1.0000 </r>
       <r>    8.2375    1.0000 </r>
       <r>    9.6147    1.0000 </r>
       <r>   10.3249    1.0002 </r>
       <r>   11.1471   -0.0350 </r>
       <r>   17.4266    0.0000 </r>
       <r>   33.5622    0.0000 </r>
       <r>   36.5066    0.0000 </r>
       <r>   36.5948    0.0000 </r>
       <r>   41.4112    0.0000 </r>
       <r>   41.4514    0.0000 </r>
      </set>
      <set comment="kpoint 7">
       <r>    5.2729    1.0000 </r>
       <r>    8.2303    1.0000 </r>
       <r>    8.3287    1.0000 </r>
       <r>    8.6572    1.0000 </r>
       <r>   10.1943    1.0000 </r>
       <r>   10.2779    1.0001 </r>
       <r>   20.2159    0.0000 </r>
       <r>   34.0446    0.0000 </r>
       <r>   35.9762    0.0000 </r>
       <r>   37.9141    0.0000 </r>
       <r>   41.2334    0.0000 </r>
       <r>   42.7574    0.0000 </r>
      </set>
      <set comment="kpoint 8">
       <r>    4.1460    1.0000 </r>
       <r>    7.8023    1.0000 </r>
       <r>    8.4051    1.0000 </r>
       <r>    8.4653    1.0000 </r>
       <r>    9.6623    1.0000 </r>
       <r>    9.8607    1.0000 </r>
       <r>   24.8049    0.0000 </r>
       <r>   34.9198    0.0000 </r>
       <r>   36.1992    0.0000 </r>
       <r>   39.8336    0.0000 </r>
       <r>   41.5115    0.0000 </r>
       <r>   44.7041    0.0000 </r>
      </set>
      <set comment="kpoint 9">
       <r>    2.5998    1.0000 </r>
       <r>    7.8406    1.0000 </r>
       <r>    8.4544    1.0000 </r>
       <r>    8.4656    1.0000 </r>
       <r>    9.3635    1.0000 </r>
       <r>    9.6102    1.0000 </r>
       <r>   30.0473    0.0000 </r>
       <r>   35.8345    0.0000 </r>
       <r>   37.0183    0.0000 </r>
       <r>   40.7410    0.0000 </r>
       <r>   42.3741    0.0000 </r>
       <r>   46.3286    0.0000 </r>
      </set>
      <set comment="kpoint 10">
       <r>    1.5388    1.0000 </r>
       <r>    8.0642    1.0000 </r>
       <r>    8.2968    1.0000 </r>
       <r>    8.3011    1.0000 </r>
       <r>    9.4235    1.0000 </r>
       <r>    9.5619    1.0000 </r>
       <r>   34.6237    0.0000 </r>
       <r>   37.2811    0.0000 </r>
       <r>   38.3405    0.0000 </r>
       <r>   39.8304    0.0000 </r>
       <r>   44.0003    0.0000 </r>
       <r>   45.4795    0.0000 </r>
      </set>
      <set comment="kpoint 11">
       <r>    2.0832    1.0000 </r>
       <r>    7.8654    1.0000 </r>
       <r>    8.4562    1.0000 </r>
       <r>    8.4603    1.0000 </r>
       <r>    9.2509    1.0000 </r>
       <r>    9.6432    1.0000 </r>
       <r>   33.5917    0.0000 </r>
       <r>   35.8408    0.0000 </r>
       <r>   36.3849    0.0000 </r>
       <r>   38.3676    0.0000 </r>
       <r>   44.8701    0.0000 </r>
       <r>   46.1528    0.0000 </r>
      </set>
      <set comment="kpoint 12">
       <r>    3.1051    1.0000 </r>
       <r>    7.6057    1.0000 </r>
       <r>    8.5421    1.0000 </r>
       <r>    8.6881    1.0000 </r>
       <r>    9.1866    1.0000 </r>
       <r>    9.7946    1.0000 </r>
       <r>   30.4371    0.0000 </r>
       <r>   32.7240    0.0000 </r>
       <r>   36.5550    0.0000 </r>
       <r>   38.0796    0.0000 </r>
       <r>   43.1200    0.0000 </r>
       <r>   45.9386    0.0000 </r>
      </set>
      <set comment="kpoint 13">
       <r>    4.5853    1.0000 </r>
       <r>    7.4844    1.0000 </r>
       <r>    8.2987    1.0000 </r>
       <r>    8.7164    1.0000 </r>
       <r>    9.6579    1.0000 </r>
       <r>   10.2047    1.0000 </r>
       <r>   25.1931    0.0000 </r>
       <r>   31.8706    0.0000 </r>
       <r>   34.9768    0.0000 </r>
       <r>   37.7531    0.0000 </r>
       <r>   44.3838    0.0000 </r>
       <r>   44.4977    0.0000 </r>
      </set>
      <set comment="kpoint 14">
       <r>    5.6458    1.0000 </r>
       <r>    7.8642    1.0000 </r>
       <r>    8.1505    1.0000 </r>
       <r>    8.5863    1.0000 </r>
       <r>   10.1730    1.0000 </r>
       <r>   11.1999   -0.0255 </r>
       <r>   20.5341    0.0000 </r>
       <r>   31.5129    0.0000 </r>
       <r>   33.4352    0.0000 </r>
       <r>   36.7341    0.0000 </r>
       <r>   43.4122    0.0000 </r>
       <r>   45.8779    0.0000 </r>
      </set>
      <set comment="kpoint 15">
       <r>    5.8795    1.0000 </r>
       <r>    7.8516    1.0000 </r>
       <r>    8.4830    1.0000 </r>
       <r>    8.6821    1.0000 </r>
       <r>   10.2901    1.0001 </r>
       <r>   12.6635   -0.0000 </r>
       <r>   17.5379    0.0000 </r>
       <r>   31.0518    0.0000 </r>
       <r>   33.0607    0.0000 </r>
       <r>   36.4549    0.0000 </r>
       <r>   42.7471    0.0000 </r>
       <r>   45.5053    0.0000 </r>
      </set>
      <set comment="kpoint 16">
       <r>    5.7967    1.0000 </r>
       <r>    7.9399    1.0000 </r>
       <r>    8.3603    1.0000 </r>
       <r>    8.5303    1.0000 </r>
       <r>   10.0663    1.0000 </r>
       <r>   11.8273   -0.0000 </r>
       <r>   19.2483    0.0000 </r>
       <r>   30.4523    0.0000 </r>
       <r>   34.1497    0.0000 </r>
       <r>   37.2616    0.0000 </r>
       <r>   42.3372    0.0000 </r>
       <r>   45.1620    0.0000 </r>
      </set>
      <set comment="kpoint 17">
       <r>    5.0638    1.0000 </r>
       <r>    7.6340    1.0000 </r>
       <r>    8.1942    1.0000 </r>
       <r>    8.6577    1.0000 </r>
       <r>    9.5785    1.0000 </r>
       <r>   10.6448    1.0355 </r>
       <r>   23.5623    0.0000 </r>
       <r>   30.3962    0.0000 </r>
       <r>   35.9444    0.0000 </r>
       <r>   39.0387    0.0000 </r>
       <r>   42.2146    0.0000 </r>
       <r>   44.4081    0.0000 </r>
      </set>
      <set comment="kpoint 18">
       <r>    3.5798    1.0000 </r>
       <r>    7.5980    1.0000 </r>
       <r>    8.4403    1.0000 </r>
       <r>    8.7188    1.0000 </r>
       <r>    9.1820    1.0000 </r>
       <r>    9.9800    1.0000 </r>
       <r>   28.6555    0.0000 </r>
       <r>   31.0197    0.0000 </r>
       <r>   38.1641    0.0000 </r>
       <r>   39.7411    0.0000 </r>
       <r>   43.1614    0.0000 </r>
       <r>   43.9548    0.0000 </r>
      </set>
      <set comment="kpoint 19">
       <r>    2.3463    1.0000 </r>
       <r>    7.8479    1.0000 </r>
       <r>    8.4565    1.0000 </r>
       <r>    8.4731    1.0000 </r>
       <r>    9.2792    1.0000 </r>
       <r>    9.6447    1.0000 </r>
       <r>   31.9303    0.0000 </r>
       <r>   34.2850    0.0000 </r>
       <r>   37.9488    0.0000 </r>
       <r>   40.1323    0.0000 </r>
       <r>   43.3798    0.0000 </r>
       <r>   45.3319    0.0000 </r>
      </set>
      <set comment="kpoint 20">
       <r>    3.7921    1.0000 </r>
       <r>    7.2874    1.0000 </r>
       <r>    8.7139    1.0000 </r>
       <r>    8.9779    1.0000 </r>
       <r>    9.1604    1.0000 </r>
       <r>    9.8876    1.0000 </r>
       <r>   30.9147    0.0000 </r>
       <r>   32.5270    0.0000 </r>
       <r>   33.3159    0.0000 </r>
       <r>   34.6208    0.0000 </r>
       <r>   40.0835    0.0000 </r>
       <r>   50.0020    0.0000 </r>
      </set>
      <set comment="kpoint 21">
       <r>    4.9236    1.0000 </r>
       <r>    7.0270    1.0000 </r>
       <r>    8.4562    1.0000 </r>
       <r>    9.2618    1.0000 </r>
       <r>    9.6987    1.0000 </r>
       <r>   10.2277    1.0000 </r>
       <r>   27.6872    0.0000 </r>
       <r>   29.7613    0.0000 </r>
       <r>   31.6929    0.0000 </r>
       <r>   35.3101    0.0000 </r>
       <r>   40.0052    0.0000 </r>
       <r>   49.5677    0.0000 </r>
      </set>
      <set comment="kpoint 22">
       <r>    5.9446    1.0000 </r>
       <r>    7.0196    1.0000 </r>
       <r>    8.1612    1.0000 </r>
       <r>    9.1814    1.0000 </r>
       <r>   10.2379    1.0000 </r>
       <r>   11.5874   -0.0000 </r>
       <r>   22.7974    0.0000 </r>
       <r>   28.7950    0.0000 </r>
       <r>   29.9229    0.0000 </r>
       <r>   35.4930    0.0000 </r>
       <r>   43.3369    0.0000 </r>
       <r>   48.0779    0.0000 </r>
      </set>
      <set comment="kpoint 23">
       <r>    6.3729    1.0000 </r>
       <r>    7.2128    1.0000 </r>
       <r>    8.1107    1.0000 </r>
       <r>    9.0305    1.0000 </r>
       <r>   10.3082    1.0002 </r>
       <r>   13.9832   -0.0000 </r>
       <r>   18.7193    0.0000 </r>
       <r>   27.1406    0.0000 </r>
       <r>   30.2403    0.0000 </r>
       <r>   35.5854    0.0000 </r>
       <r>   45.8812    0.0000 </r>
       <r>   48.9586    0.0000 </r>
      </set>
      <set comment="kpoint 24">
       <r>    6.5116    1.0000 </r>
       <r>    7.3792    1.0000 </r>
       <r>    7.9670    1.0000 </r>
       <r>    8.9613    1.0000 </r>
       <r>   10.0265    1.0000 </r>
       <r>   14.1433   -0.0000 </r>
       <r>   18.7346    0.0000 </r>
       <r>   25.9453    0.0000 </r>
       <r>   31.6366    0.0000 </r>
       <r>   36.3084    0.0000 </r>
       <r>   45.0099    0.0000 </r>
       <r>   48.9940    0.0000 </r>
      </set>
      <set comment="kpoint 25">
       <r>    6.2100    1.0000 </r>
       <r>    7.4501    1.0000 </r>
       <r>    7.7531    1.0000 </r>
       <r>    9.0299    1.0000 </r>
       <r>    9.5217    1.0000 </r>
       <r>   12.0873   -0.0000 </r>
       <r>   22.8024    0.0000 </r>
       <r>   25.5544    0.0000 </r>
       <r>   33.6879    0.0000 </r>
       <r>   37.9374    0.0000 </r>
       <r>   43.5153    0.0000 </r>
       <r>   47.8428    0.0000 </r>
      </set>
      <set comment="kpoint 26">
       <r>    5.0103    1.0000 </r>
       <r>    7.4314    1.0000 </r>
       <r>    8.1676    1.0000 </r>
       <r>    8.9278    1.0000 </r>
       <r>    9.2443    1.0000 </r>
       <r>   10.7389    0.9785 </r>
       <r>   25.5740    0.0000 </r>
       <r>   28.0368    0.0000 </r>
       <r>   36.0606    0.0000 </r>
       <r>   40.0315    0.0000 </r>
       <r>   41.6025    0.0000 </r>
       <r>   45.7305    0.0000 </r>
      </set>
      <set comment="kpoint 27">
       <r>    3.7774    1.0000 </r>
       <r>    7.6661    1.0000 </r>
       <r>    8.4309    1.0000 </r>
       <r>    8.5743    1.0000 </r>
       <r>    9.4172    1.0000 </r>
       <r>    9.9140    1.0000 </r>
       <r>   26.6420    0.0000 </r>
       <r>   33.2707    0.0000 </r>
       <r>   36.9372    0.0000 </r>
       <r>   40.2375    0.0000 </r>
       <r>   42.1518    0.0000 </r>
       <r>   44.1553    0.0000 </r>
      </set>
      <set comment="kpoint 28">
       <r>    5.3814    1.0000 </r>
       <r>    6.6798    1.0000 </r>
       <r>    9.1503    1.0000 </r>
       <r>    9.6526    1.0000 </r>
       <r>   10.0597    1.0000 </r>
       <r>   10.1639    1.0000 </r>
       <r>   27.9173    0.0000 </r>
       <r>   28.5791    0.0000 </r>
       <r>   29.3356    0.0000 </r>
       <r>   33.1140    0.0000 </r>
       <r>   37.5717    0.0000 </r>
       <r>   54.6110    0.0000 </r>
      </set>
      <set comment="kpoint 29">
       <r>    5.8030    1.0000 </r>
       <r>    6.5236    1.0000 </r>
       <r>    9.0926    1.0000 </r>
       <r>    9.9005    1.0000 </r>
       <r>   10.2505    1.0000 </r>
       <r>   11.7307   -0.0000 </r>
       <r>   25.2389    0.0000 </r>
       <r>   25.9487    0.0000 </r>
       <r>   27.6992    0.0000 </r>
       <r>   34.1911    0.0000 </r>
       <r>   38.5821    0.0000 </r>
       <r>   52.8506    0.0000 </r>
      </set>
      <set comment="kpoint 30">
       <r>    6.1991    1.0000 </r>
       <r>    6.6301    1.0000 </r>
       <r>    8.6708    1.0000 </r>
       <r>    9.6990    1.0000 </r>
       <r>   10.3626    1.0006 </r>
       <r>   14.4892   -0.0000 </r>
       <r>   21.1666    0.0000 </r>
       <r>   23.6918    0.0000 </r>
       <r>   27.9858    0.0000 </r>
       <r>   34.7694    0.0000 </r>
       <r>   42.6300    0.0000 </r>
       <r>   50.8432    0.0000 </r>
      </set>
      <set comment="kpoint 31">
       <r>    6.6402    1.0000 </r>
       <r>    6.8826    1.0000 </r>
       <r>    8.1272    1.0000 </r>
       <r>    9.4750    1.0000 </r>
       <r>   10.1264    1.0000 </r>
       <r>   17.0372    0.0000 </r>
       <r>   18.1672    0.0000 </r>
       <r>   22.5277    0.0000 </r>
       <r>   29.3233    0.0000 </r>
       <r>   35.2968    0.0000 </r>
       <r>   47.8993    0.0000 </r>
       <r>   48.8576    0.0000 </r>
      </set>
      <set comment="kpoint 32">
       <r>    6.7863    1.0000 </r>
       <r>    7.2579    1.0000 </r>
       <r>    7.6824    1.0000 </r>
       <r>    9.1888    1.0000 </r>
       <r>    9.8417    1.0000 </r>
       <r>   14.2548   -0.0000 </r>
       <r>   20.2991    0.0000 </r>
       <r>   23.7035    0.0000 </r>
       <r>   31.4045    0.0000 </r>
       <r>   36.3117    0.0000 </r>
       <r>   45.9517    0.0000 </r>
       <r>   50.1649    0.0000 </r>
      </set>
      <set comment="kpoint 33">
       <r>    6.0181    1.0000 </r>
       <r>    7.7533    1.0000 </r>
       <r>    7.8807    1.0000 </r>
       <r>    8.7676    1.0000 </r>
       <r>    9.7985    1.0000 </r>
       <r>   12.0095   -0.0000 </r>
       <r>   20.8980    0.0000 </r>
       <r>   27.9179    0.0000 </r>
       <r>   33.8325    0.0000 </r>
       <r>   37.6803    0.0000 </r>
       <r>   43.0090    0.0000 </r>
       <r>   46.5663    0.0000 </r>
      </set>
      <set comment="kpoint 34">
       <r>    5.1548    1.0000 </r>
       <r>    8.0517    1.0000 </r>
       <r>    8.2299    1.0000 </r>
       <r>    8.4548    1.0000 </r>
       <r>    9.9099    1.0000 </r>
       <r>   10.4663    1.0053 </r>
       <r>   21.7569    0.0000 </r>
       <r>   32.7652    0.0000 </r>
       <r>   35.7010    0.0000 </r>
       <r>   38.2530    0.0000 </r>
       <r>   41.9456    0.0000 </r>
       <r>   43.8316    0.0000 </r>
      </set>
      <set comment="kpoint 35">
       <r>    5.6583    1.0000 </r>
       <r>    6.2652    1.0000 </r>
       <r>   10.1064    1.0000 </r>
       <r>   10.2048    1.0000 </r>
       <r>   10.3908    1.0012 </r>
       <r>   12.3361   -0.0000 </r>
       <r>   22.9664    0.0000 </r>
       <r>   26.4731    0.0000 </r>
       <r>   27.3095    0.0000 </r>
       <r>   32.6627    0.0000 </r>
       <r>   36.7641    0.0000 </r>
       <r>   56.9143    0.0000 </r>
      </set>
      <set comment="kpoint 36">
       <r>    5.7802    1.0000 </r>
       <r>    6.2759    1.0000 </r>
       <r>    9.7344    1.0000 </r>
       <r>   10.1918    1.0000 </r>
       <r>   10.4572    1.0045 </r>
       <r>   14.2483   -0.0000 </r>
       <r>   21.3851    0.0000 </r>
       <r>   24.5780    0.0000 </r>
       <r>   26.5064    0.0000 </r>
       <r>   33.8123    0.0000 </r>
       <r>   38.1538    0.0000 </r>
       <r>   55.0653    0.0000 </r>
      </set>
      <set comment="kpoint 37">
       <r>    6.1651    1.0000 </r>
       <r>    6.5531    1.0000 </r>
       <r>    8.8552    1.0000 </r>
       <r>    9.8538    1.0000 </r>
       <r>   10.3412    1.0004 </r>
       <r>   15.8939   -0.0000 </r>
       <r>   20.5829    0.0000 </r>
       <r>   22.0428    0.0000 </r>
       <r>   27.6336    0.0000 </r>
       <r>   34.6585    0.0000 </r>
       <r>   42.5063    0.0000 </r>
       <r>   51.8046    0.0000 </r>
      </set>
      <set comment="kpoint 38">
       <r>    6.5702    1.0000 </r>
       <r>    6.9815    1.0000 </r>
       <r>    8.1146    1.0000 </r>
       <r>    9.2827    1.0000 </r>
       <r>   10.2306    1.0000 </r>
       <r>   15.7164   -0.0000 </r>
       <r>   18.1963    0.0000 </r>
       <r>   24.5395    0.0000 </r>
       <r>   29.6282    0.0000 </r>
       <r>   35.3868    0.0000 </r>
       <r>   47.0987    0.0000 </r>
       <r>   48.8474    0.0000 </r>
      </set>
      <set comment="kpoint 39">
       <r>    6.1833    1.0000 </r>
       <r>    7.5987    1.0000 </r>
       <r>    8.3180    1.0000 </r>
       <r>    8.7027    1.0000 </r>
       <r>   10.2016    1.0000 </r>
       <r>   13.6627   -0.0000 </r>
       <r>   17.6816    0.0000 </r>
       <r>   28.5639    0.0000 </r>
       <r>   32.1334    0.0000 </r>
       <r>   36.3301    0.0000 </r>
       <r>   43.8317    0.0000 </r>
       <r>   47.3816    0.0000 </r>
      </set>
      <set comment="kpoint 40">
       <r>    5.6253    1.0000 </r>
       <r>    8.0669    1.0000 </r>
       <r>    8.3341    1.0000 </r>
       <r>    9.0219    1.0000 </r>
       <r>   10.2591    1.0000 </r>
       <r>   11.5115   -0.0001 </r>
       <r>   18.0524    0.0000 </r>
       <r>   32.6396    0.0000 </r>
       <r>   34.9156    0.0000 </r>
       <r>   36.8399    0.0000 </r>
       <r>   41.7714    0.0000 </r>
       <r>   43.4058    0.0000 </r>
      </set>
      <set comment="kpoint 41">
       <r>    5.6321    1.0000 </r>
       <r>    6.1752    1.0000 </r>
       <r>   10.2929    1.0001 </r>
       <r>   10.3144    1.0002 </r>
       <r>   10.4675    1.0054 </r>
       <r>   13.4736   -0.0000 </r>
       <r>   21.3308    0.0000 </r>
       <r>   26.0594    0.0000 </r>
       <r>   26.8735    0.0000 </r>
       <r>   32.5706    0.0000 </r>
       <r>   36.6502    0.0000 </r>
       <r>   57.2379    0.0000 </r>
      </set>
      <set comment="kpoint 42">
       <r>    5.8134    1.0000 </r>
       <r>    6.3607    1.0000 </r>
       <r>    9.4977    1.0000 </r>
       <r>   10.1169    1.0000 </r>
       <r>   10.3722    1.0008 </r>
       <r>   13.0832   -0.0000 </r>
       <r>   23.0588    0.0000 </r>
       <r>   24.9721    0.0000 </r>
       <r>   26.9077    0.0000 </r>
       <r>   33.9394    0.0000 </r>
       <r>   38.2837    0.0000 </r>
       <r>   54.2144    0.0000 </r>
      </set>
      <set comment="kpoint 43">
       <r>    6.1805    1.0000 </r>
       <r>    6.7915    1.0000 </r>
       <r>    8.3851    1.0000 </r>
       <r>    9.4549    1.0000 </r>
       <r>   10.3418    1.0004 </r>
       <r>   12.9056   -0.0000 </r>
       <r>   21.8780    0.0000 </r>
       <r>   26.1917    0.0000 </r>
       <r>   28.6990    0.0000 </r>
       <r>   35.0225    0.0000 </r>
       <r>   42.8982    0.0000 </r>
       <r>   49.4972    0.0000 </r>
      </set>
      <set comment="kpoint 44">
       <r>    6.0592    1.0000 </r>
       <r>    7.5315    1.0000 </r>
       <r>    8.1245    1.0000 </r>
       <r>    8.7873    1.0000 </r>
       <r>   10.3015    1.0001 </r>
       <r>   12.4157   -0.0000 </r>
       <r>   19.5183    0.0000 </r>
       <r>   29.7657    0.0000 </r>
       <r>   31.3103    0.0000 </r>
       <r>   35.9783    0.0000 </r>
       <r>   44.6602    0.0000 </r>
       <r>   48.1474    0.0000 </r>
      </set>
      <set comment="kpoint 45">
       <r>    5.6349    1.0000 </r>
       <r>    6.4388    1.0000 </r>
       <r>    9.7214    1.0000 </r>
       <r>    9.9698    1.0000 </r>
       <r>   10.2878    1.0001 </r>
       <r>   10.9883    0.1358 </r>
       <r>   25.3871    0.0000 </r>
       <r>   27.2751    0.0000 </r>
       <r>   28.1497    0.0000 </r>
       <r>   32.8542    0.0000 </r>
       <r>   37.0368    0.0000 </r>
       <r>   56.0947    0.0000 </r>
      </set>
      <set comment="kpoint 46">
       <r>    5.5649    1.0000 </r>
       <r>    6.7529    1.0000 </r>
       <r>    8.6614    1.0000 </r>
       <r>    9.5915    1.0000 </r>
       <r>   10.0566    1.0000 </r>
       <r>   10.7289    0.9920 </r>
       <r>   26.4922    0.0000 </r>
       <r>   28.1727    0.0000 </r>
       <r>   29.0844    0.0000 </r>
       <r>   34.6417    0.0000 </r>
       <r>   39.1255    0.0000 </r>
       <r>   51.2727    0.0000 </r>
      </set>
      <set comment="kpoint 47">
       <r>    5.3748    1.0000 </r>
       <r>    7.2623    1.0000 </r>
       <r>    8.1518    1.0000 </r>
       <r>    8.9235    1.0000 </r>
       <r>   10.0102    1.0000 </r>
       <r>   10.6845    1.0279 </r>
       <r>   23.9075    0.0000 </r>
       <r>   30.4955    0.0000 </r>
       <r>   32.3613    0.0000 </r>
       <r>   36.2903    0.0000 </r>
       <r>   43.9179    0.0000 </r>
       <r>   46.5166    0.0000 </r>
      </set>
      <set comment="kpoint 48">
       <r>    4.7229    1.0000 </r>
       <r>    6.9720    1.0000 </r>
       <r>    8.7595    1.0000 </r>
       <r>    9.3082    1.0000 </r>
       <r>    9.5244    1.0000 </r>
       <r>   10.0275    1.0000 </r>
       <r>   29.4898    0.0000 </r>
       <r>   30.8148    0.0000 </r>
       <r>   31.0571    0.0000 </r>
       <r>   33.6223    0.0000 </r>
       <r>   38.5061    0.0000 </r>
       <r>   52.3741    0.0000 </r>
      </set>
      <set comment="kpoint 49">
       <r>    4.0160    1.0000 </r>
       <r>    7.3211    1.0000 </r>
       <r>    8.4995    1.0000 </r>
       <r>    8.9553    1.0000 </r>
       <r>    9.3366    1.0000 </r>
       <r>    9.9814    1.0000 </r>
       <r>   29.0154    0.0000 </r>
       <r>   31.2162    0.0000 </r>
       <r>   34.4594    0.0000 </r>
       <r>   36.3437    0.0000 </r>
       <r>   41.3419    0.0000 </r>
       <r>   47.7488    0.0000 </r>
      </set>
      <set comment="kpoint 50">
       <r>    2.8588    1.0000 </r>
       <r>    7.5960    1.0000 </r>
       <r>    8.6593    1.0000 </r>
       <r>    8.6924    1.0000 </r>
       <r>    9.0768    1.0000 </r>
       <r>    9.7554    1.0000 </r>
       <r>   32.3195    0.0000 </r>
       <r>   34.4258    0.0000 </r>
       <r>   34.6208    0.0000 </r>
       <r>   36.4845    0.0000 </r>
       <r>   42.4320    0.0000 </r>
       <r>   47.7531    0.0000 </r>
      </set>
      <set comment="kpoint 51">
       <r>    2.0800    1.0000 </r>
       <r>    7.9687    1.0000 </r>
       <r>    8.3774    1.0000 </r>
       <r>    8.3774    1.0000 </r>
       <r>    9.4757    1.0000 </r>
       <r>    9.4757    1.0000 </r>
       <r>   31.7439    0.0000 </r>
       <r>   36.5983    0.0000 </r>
       <r>   39.0091    0.0000 </r>
       <r>   39.0091    0.0000 </r>
       <r>   44.3998    0.0000 </r>
       <r>   45.2713    0.0000 </r>
      </set>
      <set comment="kpoint 52">
       <r>    2.8573    1.0000 </r>
       <r>    7.7657    1.0000 </r>
       <r>    8.4656    1.0000 </r>
       <r>    8.5523    1.0000 </r>
       <r>    9.2321    1.0000 </r>
       <r>    9.7546    1.0000 </r>
       <r>   30.2425    0.0000 </r>
       <r>   32.5955    0.0000 </r>
       <r>   39.2192    0.0000 </r>
       <r>   41.4517    0.0000 </r>
       <r>   41.8842    0.0000 </r>
       <r>   43.9345    0.0000 </r>
      </set>
      <set comment="kpoint 53">
       <r>    4.2407    1.0000 </r>
       <r>    7.5429    1.0000 </r>
       <r>    8.3443    1.0000 </r>
       <r>    8.7993    1.0000 </r>
       <r>    9.1307    1.0000 </r>
       <r>   10.3054    1.0001 </r>
       <r>   27.0327    0.0000 </r>
       <r>   29.4398    0.0000 </r>
       <r>   38.5584    0.0000 </r>
       <r>   40.3194    0.0000 </r>
       <r>   41.4560    0.0000 </r>
       <r>   44.1810    0.0000 </r>
      </set>
      <set comment="kpoint 54">
       <r>    5.5658    1.0000 </r>
       <r>    7.7688    1.0000 </r>
       <r>    8.0621    1.0000 </r>
       <r>    8.6487    1.0000 </r>
       <r>    9.6107    1.0000 </r>
       <r>   11.2120   -0.0227 </r>
       <r>   22.1344    0.0000 </r>
       <r>   29.0700    0.0000 </r>
       <r>   36.4594    0.0000 </r>
       <r>   37.3253    0.0000 </r>
       <r>   43.5208    0.0000 </r>
       <r>   43.7942    0.0000 </r>
      </set>
      <set comment="kpoint 55">
       <r>    5.9713    1.0000 </r>
       <r>    7.8215    1.0000 </r>
       <r>    8.4613    1.0000 </r>
       <r>    8.5520    1.0000 </r>
       <r>   10.1003    1.0000 </r>
       <r>   12.6653   -0.0000 </r>
       <r>   18.2627    0.0000 </r>
       <r>   29.4319    0.0000 </r>
       <r>   34.8793    0.0000 </r>
       <r>   35.2665    0.0000 </r>
       <r>   44.2097    0.0000 </r>
       <r>   44.6460    0.0000 </r>
      </set>
      <set comment="kpoint 56">
       <r>    5.9437    1.0000 </r>
       <r>    7.7467    1.0000 </r>
       <r>    8.4218    1.0000 </r>
       <r>    8.5872    1.0000 </r>
       <r>   10.3443    1.0004 </r>
       <r>   12.5532   -0.0000 </r>
       <r>   18.2423    0.0000 </r>
       <r>   30.4846    0.0000 </r>
       <r>   33.3244    0.0000 </r>
       <r>   34.9875    0.0000 </r>
       <r>   45.2056    0.0000 </r>
       <r>   45.2550    0.0000 </r>
      </set>
      <set comment="kpoint 57">
       <r>    5.5037    1.0000 </r>
       <r>    7.5319    1.0000 </r>
       <r>    8.1363    1.0000 </r>
       <r>    8.7101    1.0000 </r>
       <r>   10.2569    1.0000 </r>
       <r>   10.7662    0.9294 </r>
       <r>   22.0945    0.0000 </r>
       <r>   31.9863    0.0000 </r>
       <r>   32.7578    0.0000 </r>
       <r>   35.5514    0.0000 </r>
       <r>   45.7764    0.0000 </r>
       <r>   46.5658    0.0000 </r>
      </set>
      <set comment="kpoint 58">
       <r>    4.2155    1.0000 </r>
       <r>    7.3744    1.0000 </r>
       <r>    8.4156    1.0000 </r>
       <r>    8.8038    1.0000 </r>
       <r>    9.6071    1.0000 </r>
       <r>    9.9701    1.0000 </r>
       <r>   27.0159    0.0000 </r>
       <r>   33.1701    0.0000 </r>
       <r>   33.4952    0.0000 </r>
       <r>   36.6655    0.0000 </r>
       <r>   42.8025    0.0000 </r>
       <r>   46.6892    0.0000 </r>
      </set>
      <set comment="kpoint 59">
       <r>    3.3363    1.0000 </r>
       <r>    7.6321    1.0000 </r>
       <r>    8.5028    1.0000 </r>
       <r>    8.6057    1.0000 </r>
       <r>    9.3472    1.0000 </r>
       <r>    9.7841    1.0000 </r>
       <r>   28.4637    0.0000 </r>
       <r>   34.7862    0.0000 </r>
       <r>   35.0244    0.0000 </r>
       <r>   39.2680    0.0000 </r>
       <r>   42.9582    0.0000 </r>
       <r>   45.6623    0.0000 </r>
      </set>
      <set comment="kpoint 60">
       <r>    4.4400    1.0000 </r>
       <r>    7.3757    1.0000 </r>
       <r>    8.3069    1.0000 </r>
       <r>    8.9462    1.0000 </r>
       <r>    9.3164    1.0000 </r>
       <r>   10.2863    1.0001 </r>
       <r>   27.2112    0.0000 </r>
       <r>   29.5683    0.0000 </r>
       <r>   35.3284    0.0000 </r>
       <r>   38.5801    0.0000 </r>
       <r>   42.7353    0.0000 </r>
       <r>   45.2004    0.0000 </r>
      </set>
      <set comment="kpoint 61">
       <r>    5.7592    1.0000 </r>
       <r>    7.2809    1.0000 </r>
       <r>    7.9257    1.0000 </r>
       <r>    9.1398    1.0000 </r>
       <r>    9.5125    1.0000 </r>
       <r>   11.3478   -0.0028 </r>
       <r>   24.2813    0.0000 </r>
       <r>   26.8213    0.0000 </r>
       <r>   32.8679    0.0000 </r>
       <r>   39.9317    0.0000 </r>
       <r>   41.6092    0.0000 </r>
       <r>   46.6511    0.0000 </r>
      </set>
      <set comment="kpoint 62">
       <r>    6.3941    1.0000 </r>
       <r>    7.4519    1.0000 </r>
       <r>    7.8394    1.0000 </r>
       <r>    8.9716    1.0000 </r>
       <r>   10.0160    1.0000 </r>
       <r>   13.1591   -0.0000 </r>
       <r>   19.8583    0.0000 </r>
       <r>   26.9588    0.0000 </r>
       <r>   30.7362    0.0000 </r>
       <r>   38.5248    0.0000 </r>
       <r>   42.6738    0.0000 </r>
       <r>   49.6035    0.0000 </r>
      </set>
      <set comment="kpoint 63">
       <r>    6.4324    1.0000 </r>
       <r>    7.3389    1.0000 </r>
       <r>    8.0782    1.0000 </r>
       <r>    8.9290    1.0000 </r>
       <r>   10.2322    1.0000 </r>
       <r>   14.4501   -0.0000 </r>
       <r>   17.8426    0.0000 </r>
       <r>   27.7830    0.0000 </r>
       <r>   29.3737    0.0000 </r>
       <r>   37.7304    0.0000 </r>
       <r>   43.3231    0.0000 </r>
       <r>   50.3760    0.0000 </r>
      </set>
      <set comment="kpoint 64">
       <r>    6.1969    1.0000 </r>
       <r>    7.2796    1.0000 </r>
       <r>    7.9039    1.0000 </r>
       <r>    9.0706    1.0000 </r>
       <r>   10.1067    1.0000 </r>
       <r>   12.3166   -0.0000 </r>
       <r>   21.2193    0.0000 </r>
       <r>   28.0903    0.0000 </r>
       <r>   30.0304    0.0000 </r>
       <r>   37.6726    0.0000 </r>
       <r>   43.6247    0.0000 </r>
       <r>   47.5156    0.0000 </r>
      </set>
      <set comment="kpoint 65">
       <r>    5.2931    1.0000 </r>
       <r>    7.1332    1.0000 </r>
       <r>    8.1566    1.0000 </r>
       <r>    9.2239    1.0000 </r>
       <r>    9.6151    1.0000 </r>
       <r>   10.7289    0.9920 </r>
       <r>   25.9213    0.0000 </r>
       <r>   28.2769    0.0000 </r>
       <r>   32.2372    0.0000 </r>
       <r>   37.6578    0.0000 </r>
       <r>   41.9078    0.0000 </r>
       <r>   46.6242    0.0000 </r>
      </set>
      <set comment="kpoint 66">
       <r>    5.0875    1.0000 </r>
       <r>    7.1015    1.0000 </r>
       <r>    8.3327    1.0000 </r>
       <r>    9.0480    1.0000 </r>
       <r>   10.1480    1.0000 </r>
       <r>   10.1517    1.0000 </r>
       <r>   25.7157    0.0000 </r>
       <r>   31.4029    0.0000 </r>
       <r>   31.4928    0.0000 </r>
       <r>   34.9995    0.0000 </r>
       <r>   41.7910    0.0000 </r>
       <r>   48.9940    0.0000 </r>
      </set>
      <set comment="kpoint 67">
       <r>    5.8982    1.0000 </r>
       <r>    6.8978    1.0000 </r>
       <r>    8.1775    1.0000 </r>
       <r>    9.5286    1.0000 </r>
       <r>    9.9191    1.0000 </r>
       <r>   11.4657   -0.0002 </r>
       <r>   24.7870    0.0000 </r>
       <r>   27.0994    0.0000 </r>
       <r>   29.2016    0.0000 </r>
       <r>   36.9308    0.0000 </r>
       <r>   41.2686    0.0000 </r>
       <r>   47.9698    0.0000 </r>
      </set>
      <set comment="kpoint 68">
       <r>    6.4842    1.0000 </r>
       <r>    6.9511    1.0000 </r>
       <r>    7.8906    1.0000 </r>
       <r>    9.5930    1.0000 </r>
       <r>   10.0888    1.0000 </r>
       <r>   13.5923   -0.0000 </r>
       <r>   22.2517    0.0000 </r>
       <r>   24.9244    0.0000 </r>
       <r>   26.8526    0.0000 </r>
       <r>   39.0046    0.0000 </r>
       <r>   42.6181    0.0000 </r>
       <r>   46.9695    0.0000 </r>
      </set>
      <set comment="kpoint 69">
       <r>    6.8086    1.0000 </r>
       <r>    7.0153    1.0000 </r>
       <r>    7.7476    1.0000 </r>
       <r>    9.3551    1.0000 </r>
       <r>   10.2612    1.0000 </r>
       <r>   16.3872    0.0000 </r>
       <r>   18.5016    0.0000 </r>
       <r>   24.6984    0.0000 </r>
       <r>   26.0928    0.0000 </r>
       <r>   39.5825    0.0000 </r>
       <r>   43.7415    0.0000 </r>
       <r>   49.0114    0.0000 </r>
      </set>
      <set comment="kpoint 70">
       <r>    6.8188    1.0000 </r>
       <r>    7.1961    1.0000 </r>
       <r>    7.4935    1.0000 </r>
       <r>    9.3941    1.0000 </r>
       <r>   10.0715    1.0000 </r>
       <r>   14.6396   -0.0000 </r>
       <r>   20.7382    0.0000 </r>
       <r>   23.9233    0.0000 </r>
       <r>   27.5350    0.0000 </r>
       <r>   40.4981    0.0000 </r>
       <r>   42.4368    0.0000 </r>
       <r>   48.3575    0.0000 </r>
      </set>
      <set comment="kpoint 71">
       <r>    6.3019    1.0000 </r>
       <r>    7.1122    1.0000 </r>
       <r>    7.7808    1.0000 </r>
       <r>    9.3939    1.0000 </r>
       <r>    9.8149    1.0000 </r>
       <r>   12.2705   -0.0000 </r>
       <r>   23.1662    0.0000 </r>
       <r>   25.7956    0.0000 </r>
       <r>   29.7372    0.0000 </r>
       <r>   39.4679    0.0000 </r>
       <r>   42.0657    0.0000 </r>
       <r>   46.6864    0.0000 </r>
      </set>
      <set comment="kpoint 72">
       <r>    5.9417    1.0000 </r>
       <r>    6.6133    1.0000 </r>
       <r>    8.8240    1.0000 </r>
       <r>    9.6119    1.0000 </r>
       <r>   10.3888    1.0011 </r>
       <r>   12.1834   -0.0000 </r>
       <r>   23.6145    0.0000 </r>
       <r>   25.8894    0.0000 </r>
       <r>   28.9245    0.0000 </r>
       <r>   33.8584    0.0000 </r>
       <r>   40.4465    0.0000 </r>
       <r>   52.6371    0.0000 </r>
      </set>
      <set comment="kpoint 73">
       <r>    6.0932    1.0000 </r>
       <r>    6.5536    1.0000 </r>
       <r>    8.7920    1.0000 </r>
       <r>    9.9342    1.0000 </r>
       <r>   10.3334    1.0003 </r>
       <r>   14.0951   -0.0000 </r>
       <r>   22.9561    0.0000 </r>
       <r>   23.6533    0.0000 </r>
       <r>   25.8509    0.0000 </r>
       <r>   36.0877    0.0000 </r>
       <r>   40.6114    0.0000 </r>
       <r>   50.6774    0.0000 </r>
      </set>
      <set comment="kpoint 74">
       <r>    6.3577    1.0000 </r>
       <r>    6.7827    1.0000 </r>
       <r>    8.3193    1.0000 </r>
       <r>    9.6825    1.0000 </r>
       <r>   10.4498    1.0039 </r>
       <r>   16.7061    0.0000 </r>
       <r>   21.0636    0.0000 </r>
       <r>   22.0190    0.0000 </r>
       <r>   24.4228    0.0000 </r>
       <r>   38.4896    0.0000 </r>
       <r>   43.2127    0.0000 </r>
       <r>   48.1317    0.0000 </r>
      </set>
      <set comment="kpoint 75">
       <r>    6.7188    1.0000 </r>
       <r>    7.1033    1.0000 </r>
       <r>    7.7180    1.0000 </r>
       <r>    9.4401    1.0000 </r>
       <r>   10.3072    1.0001 </r>
       <r>   17.5757    0.0000 </r>
       <r>   18.6840    0.0000 </r>
       <r>   22.6804    0.0000 </r>
       <r>   25.7142    0.0000 </r>
       <r>   39.6761    0.0000 </r>
       <r>   44.8430    0.0000 </r>
       <r>   48.0290    0.0000 </r>
      </set>
      <set comment="kpoint 76">
       <r>    6.6903    1.0000 </r>
       <r>    7.1471    1.0000 </r>
       <r>    7.7946    1.0000 </r>
       <r>    9.1876    1.0000 </r>
       <r>   10.1712    1.0000 </r>
       <r>   14.6700   -0.0000 </r>
       <r>   19.0355    0.0000 </r>
       <r>   26.1529    0.0000 </r>
       <r>   27.8587    0.0000 </r>
       <r>   39.2331    0.0000 </r>
       <r>   42.8787    0.0000 </r>
       <r>   49.8150    0.0000 </r>
      </set>
      <set comment="kpoint 77">
       <r>    5.9172    1.0000 </r>
       <r>    6.3687    1.0000 </r>
       <r>    9.4080    1.0000 </r>
       <r>   10.0544    1.0000 </r>
       <r>   10.3905    1.0012 </r>
       <r>   14.8778   -0.0000 </r>
       <r>   21.3447    0.0000 </r>
       <r>   22.8401    0.0000 </r>
       <r>   27.7221    0.0000 </r>
       <r>   33.5134    0.0000 </r>
       <r>   39.9692    0.0000 </r>
       <r>   54.5950    0.0000 </r>
      </set>
      <set comment="kpoint 78">
       <r>    6.0455    1.0000 </r>
       <r>    6.4784    1.0000 </r>
       <r>    9.0146    1.0000 </r>
       <r>    9.9608    1.0000 </r>
       <r>   10.4519    1.0041 </r>
       <r>   15.3899   -0.0000 </r>
       <r>   21.4767    0.0000 </r>
       <r>   22.9864    0.0000 </r>
       <r>   25.4793    0.0000 </r>
       <r>   35.9113    0.0000 </r>
       <r>   40.5070    0.0000 </r>
       <r>   51.6223    0.0000 </r>
      </set>
      <set comment="kpoint 79">
       <r>    6.4292    1.0000 </r>
       <r>    6.8382    1.0000 </r>
       <r>    8.1390    1.0000 </r>
       <r>    9.6758    1.0000 </r>
       <r>   10.3152    1.0002 </r>
       <r>   15.2110   -0.0000 </r>
       <r>   21.5660    0.0000 </r>
       <r>   23.6711    0.0000 </r>
       <r>   24.9029    0.0000 </r>
       <r>   38.6664    0.0000 </r>
       <r>   43.0196    0.0000 </r>
       <r>   47.5469    0.0000 </r>
      </set>
      <set comment="kpoint 80">
       <r>    5.9518    1.0000 </r>
       <r>    6.4522    1.0000 </r>
       <r>    9.1958    1.0000 </r>
       <r>    9.8726    1.0000 </r>
       <r>   10.4173    1.0021 </r>
       <r>   13.6338   -0.0000 </r>
       <r>   22.7002    0.0000 </r>
       <r>   23.6119    0.0000 </r>
       <r>   28.1321    0.0000 </r>
       <r>   33.6468    0.0000 </r>
       <r>   40.1235    0.0000 </r>
       <r>   53.8376    0.0000 </r>
      </set>
      <set comment="kpoint 81">
       <r>    6.1087    1.0000 </r>
       <r>    6.6973    1.0000 </r>
       <r>    8.4507    1.0000 </r>
       <r>    9.7942    1.0000 </r>
       <r>   10.1491    1.0000 </r>
       <r>   12.6262   -0.0000 </r>
       <r>   23.8447    0.0000 </r>
       <r>   25.7109    0.0000 </r>
       <r>   26.7890    0.0000 </r>
       <r>   36.4146    0.0000 </r>
       <r>   40.8485    0.0000 </r>
       <r>   49.3505    0.0000 </r>
      </set>
      <set comment="kpoint 82">
       <r>    5.7072    1.0000 </r>
       <r>    6.8392    1.0000 </r>
       <r>    8.4624    1.0000 </r>
       <r>    9.3264    1.0000 </r>
       <r>   10.2951    1.0001 </r>
       <r>   10.9923    0.1249 </r>
       <r>   24.5782    0.0000 </r>
       <r>   28.6712    0.0000 </r>
       <r>   30.0651    0.0000 </r>
       <r>   34.2536    0.0000 </r>
       <r>   40.9961    0.0000 </r>
       <r>   51.2739    0.0000 </r>
      </set>
      <set comment="kpoint 83">
       <r>    3.5350    1.0000 </r>
       <r>    7.8155    1.0000 </r>
       <r>    8.4501    1.0000 </r>
       <r>    8.4501    1.0000 </r>
       <r>    9.6167    1.0000 </r>
       <r>    9.6167    1.0000 </r>
       <r>   26.4397    0.0000 </r>
       <r>   35.7297    0.0000 </r>
       <r>   38.2107    0.0000 </r>
       <r>   38.2107    0.0000 </r>
       <r>   43.9838    0.0000 </r>
       <r>   43.9838    0.0000 </r>
      </set>
      <set comment="kpoint 84">
       <r>    4.3808    1.0000 </r>
       <r>    7.6778    1.0000 </r>
       <r>    8.3534    1.0000 </r>
       <r>    8.5781    1.0000 </r>
       <r>    9.4211    1.0000 </r>
       <r>   10.2213    1.0000 </r>
       <r>   25.0084    0.0000 </r>
       <r>   31.7630    0.0000 </r>
       <r>   37.6576    0.0000 </r>
       <r>   40.5017    0.0000 </r>
       <r>   41.9148    0.0000 </r>
       <r>   42.3626    0.0000 </r>
      </set>
      <set comment="kpoint 85">
       <r>    5.6369    1.0000 </r>
       <r>    7.4628    1.0000 </r>
       <r>    8.0081    1.0000 </r>
       <r>    8.9128    1.0000 </r>
       <r>    9.3140    1.0000 </r>
       <r>   11.3129   -0.0055 </r>
       <r>   24.1056    0.0000 </r>
       <r>   26.6894    0.0000 </r>
       <r>   36.7375    0.0000 </r>
       <r>   37.1475    0.0000 </r>
       <r>   43.5593    0.0000 </r>
       <r>   45.6732    0.0000 </r>
      </set>
      <set comment="kpoint 86">
       <r>    6.5515    1.0000 </r>
       <r>    7.5368    1.0000 </r>
       <r>    7.6015    1.0000 </r>
       <r>    9.0435    1.0000 </r>
       <r>    9.6408    1.0000 </r>
       <r>   13.0264   -0.0000 </r>
       <r>   21.4667    0.0000 </r>
       <r>   24.5115    0.0000 </r>
       <r>   34.1678    0.0000 </r>
       <r>   35.3581    0.0000 </r>
       <r>   46.2372    0.0000 </r>
       <r>   47.3322    0.0000 </r>
      </set>
      <set comment="kpoint 87">
       <r>    6.5645    1.0000 </r>
       <r>    7.1958    1.0000 </r>
       <r>    8.0578    1.0000 </r>
       <r>    9.0808    1.0000 </r>
       <r>   10.1207    1.0000 </r>
       <r>   15.1933   -0.0000 </r>
       <r>   17.9709    0.0000 </r>
       <r>   25.1350    0.0000 </r>
       <r>   31.8015    0.0000 </r>
       <r>   34.5191    0.0000 </r>
       <r>   48.1607    0.0000 </r>
       <r>   48.1934    0.0000 </r>
      </set>
      <set comment="kpoint 88">
       <r>    6.2807    1.0000 </r>
       <r>    6.9854    1.0000 </r>
       <r>    8.2480    1.0000 </r>
       <r>    9.1950    1.0000 </r>
       <r>   10.3771    1.0009 </r>
       <r>   13.3990   -0.0000 </r>
       <r>   20.1284    0.0000 </r>
       <r>   26.5846    0.0000 </r>
       <r>   30.3868    0.0000 </r>
       <r>   34.2329    0.0000 </r>
       <r>   45.4898    0.0000 </r>
       <r>   49.4770    0.0000 </r>
      </set>
      <set comment="kpoint 89">
       <r>    4.8416    1.0000 </r>
       <r>    7.7157    1.0000 </r>
       <r>    8.2724    1.0000 </r>
       <r>    8.5511    1.0000 </r>
       <r>   10.0164    1.0000 </r>
       <r>   10.0833    1.0000 </r>
       <r>   23.3586    0.0000 </r>
       <r>   33.7780    0.0000 </r>
       <r>   34.3634    0.0000 </r>
       <r>   37.5639    0.0000 </r>
       <r>   43.4024    0.0000 </r>
       <r>   45.6156    0.0000 </r>
      </set>
      <set comment="kpoint 90">
       <r>    5.7096    1.0000 </r>
       <r>    7.5096    1.0000 </r>
       <r>    7.9900    1.0000 </r>
       <r>    8.8347    1.0000 </r>
       <r>    9.8655    1.0000 </r>
       <r>   11.2887   -0.0082 </r>
       <r>   22.3012    0.0000 </r>
       <r>   29.1789    0.0000 </r>
       <r>   33.0261    0.0000 </r>
       <r>   38.2335    0.0000 </r>
       <r>   42.8437    0.0000 </r>
       <r>   46.8690    0.0000 </r>
      </set>
      <set comment="kpoint 91">
       <r>    6.6425    1.0000 </r>
       <r>    7.3499    1.0000 </r>
       <r>    7.5177    1.0000 </r>
       <r>    9.2303    1.0000 </r>
       <r>    9.7943    1.0000 </r>
       <r>   13.1781   -0.0000 </r>
       <r>   21.6664    0.0000 </r>
       <r>   24.6348    0.0000 </r>
       <r>   30.5093    0.0000 </r>
       <r>   39.1467    0.0000 </r>
       <r>   42.8704    0.0000 </r>
       <r>   48.9737    0.0000 </r>
      </set>
      <set comment="kpoint 92">
       <r>    6.9534    1.0000 </r>
       <r>    6.9699    1.0000 </r>
       <r>    7.7170    1.0000 </r>
       <r>    9.3470    1.0000 </r>
       <r>   10.0835    1.0000 </r>
       <r>   15.8058   -0.0000 </r>
       <r>   19.3337    0.0000 </r>
       <r>   23.1160    0.0000 </r>
       <r>   28.4500    0.0000 </r>
       <r>   37.8987    0.0000 </r>
       <r>   45.3380    0.0000 </r>
       <r>   50.4225    0.0000 </r>
      </set>
      <set comment="kpoint 93">
       <r>    6.5070    1.0000 </r>
       <r>    6.8618    1.0000 </r>
       <r>    8.1381    1.0000 </r>
       <r>    9.5115    1.0000 </r>
       <r>   10.2960    1.0001 </r>
       <r>   15.4709   -0.0000 </r>
       <r>   19.6702    0.0000 </r>
       <r>   24.1289    0.0000 </r>
       <r>   27.0354    0.0000 </r>
       <r>   37.0488    0.0000 </r>
       <r>   45.0242    0.0000 </r>
       <r>   47.8611    0.0000 </r>
      </set>
      <set comment="kpoint 94">
       <r>    6.0050    1.0000 </r>
       <r>    7.2605    1.0000 </r>
       <r>    8.1271    1.0000 </r>
       <r>    8.9339    1.0000 </r>
       <r>   10.3613    1.0006 </r>
       <r>   11.9073   -0.0000 </r>
       <r>   21.0162    0.0000 </r>
       <r>   29.3876    0.0000 </r>
       <r>   31.4335    0.0000 </r>
       <r>   34.6466    0.0000 </r>
       <r>   45.8749    0.0000 </r>
       <r>   48.0884    0.0000 </r>
      </set>
      <set comment="kpoint 95">
       <r>    6.4552    1.0000 </r>
       <r>    7.0265    1.0000 </r>
       <r>    7.9800    1.0000 </r>
       <r>    9.3160    1.0000 </r>
       <r>   10.2400    1.0000 </r>
       <r>   13.7546   -0.0000 </r>
       <r>   20.3381    0.0000 </r>
       <r>   26.5605    0.0000 </r>
       <r>   27.8111    0.0000 </r>
       <r>   37.2892    0.0000 </r>
       <r>   44.4265    0.0000 </r>
       <r>   47.5215    0.0000 </r>
      </set>
      <set comment="kpoint 96">
       <r>    6.6972    1.0000 </r>
       <r>    7.1918    1.0000 </r>
       <r>    7.5983    1.0000 </r>
       <r>    9.4651    1.0000 </r>
       <r>   10.3076    1.0001 </r>
       <r>   16.3925    0.0000 </r>
       <r>   20.0536    0.0000 </r>
       <r>   23.3050    0.0000 </r>
       <r>   24.9397    0.0000 </r>
       <r>   41.3270    0.0000 </r>
       <r>   42.8743    0.0000 </r>
       <r>   47.4683    0.0000 </r>
      </set>
      <set comment="kpoint 97">
       <r>    6.5884    1.0000 </r>
       <r>    7.1877    1.0000 </r>
       <r>    7.7072    1.0000 </r>
       <r>    9.4772    1.0000 </r>
       <r>   10.4494    1.0039 </r>
       <r>   18.1159    0.0000 </r>
       <r>   19.6477    0.0000 </r>
       <r>   22.1644    0.0000 </r>
       <r>   23.6909    0.0000 </r>
       <r>   41.3549    0.0000 </r>
       <r>   44.3543    0.0000 </r>
       <r>   46.2262    0.0000 </r>
      </set>
      <set comment="kpoint 98">
       <r>    6.3724    1.0000 </r>
       <r>    6.7882    1.0000 </r>
       <r>    8.4204    1.0000 </r>
       <r>    9.4639    1.0000 </r>
       <r>   10.3147    1.0002 </r>
       <r>   15.1283   -0.0000 </r>
       <r>   19.4456    0.0000 </r>
       <r>   24.0123    0.0000 </r>
       <r>   29.6742    0.0000 </r>
       <r>   34.0385    0.0000 </r>
       <r>   45.2476    0.0000 </r>
       <r>   50.8201    0.0000 </r>
      </set>
      <set comment="kpoint 99">
       <r>    6.4713    1.0000 </r>
       <r>    6.8059    1.0000 </r>
       <r>    8.2588    1.0000 </r>
       <r>    9.6134    1.0000 </r>
       <r>   10.3166    1.0002 </r>
       <r>   17.1011    0.0000 </r>
       <r>   19.1726    0.0000 </r>
       <r>   22.2269    0.0000 </r>
       <r>   26.7184    0.0000 </r>
       <r>   36.9398    0.0000 </r>
       <r>   45.2826    0.0000 </r>
       <r>   48.3611    0.0000 </r>
      </set>
      <set comment="kpoint 100">
       <r>    6.3739    1.0000 </r>
       <r>    6.7007    1.0000 </r>
       <r>    8.5384    1.0000 </r>
       <r>    9.6742    1.0000 </r>
       <r>   10.2141    1.0000 </r>
       <r>   16.7409    0.0000 </r>
       <r>   18.9118    0.0000 </r>
       <r>   22.1557    0.0000 </r>
       <r>   29.3123    0.0000 </r>
       <r>   33.9598    0.0000 </r>
       <r>   45.1317    0.0000 </r>
       <r>   51.7710    0.0000 </r>
      </set>
      <set comment="kpoint 101">
       <r>    4.9414    1.0000 </r>
       <r>    8.3270    1.0000 </r>
       <r>    8.3270    1.0000 </r>
       <r>    8.3830    1.0000 </r>
       <r>    9.9867    1.0000 </r>
       <r>    9.9867    1.0000 </r>
       <r>   21.5776    0.0000 </r>
       <r>   34.7023    0.0000 </r>
       <r>   37.6860    0.0000 </r>
       <r>   37.6860    0.0000 </r>
       <r>   41.8273    0.0000 </r>
       <r>   41.8273    0.0000 </r>
      </set>
      <set comment="kpoint 102">
       <r>    5.4780    1.0000 </r>
       <r>    8.1390    1.0000 </r>
       <r>    8.3391    1.0000 </r>
       <r>    8.4237    1.0000 </r>
       <r>    9.8994    1.0000 </r>
       <r>   10.9992    0.1069 </r>
       <r>   20.3828    0.0000 </r>
       <r>   31.5428    0.0000 </r>
       <r>   36.1127    0.0000 </r>
[...]
       <r>    41.7623     0.1466    10.2595 </r>
       <r>    41.9676     0.2000    10.3005 </r>
       <r>    42.1729     0.1857    10.3387 </r>
       <r>    42.3783     0.1760    10.3748 </r>
       <r>    42.5836     0.2240    10.4208 </r>
       <r>    42.7890     0.3615    10.4950 </r>
       <r>    42.9943     0.3894    10.5750 </r>
       <r>    43.1997     0.2760    10.6316 </r>
       <r>    43.4050     0.3401    10.7015 </r>
       <r>    43.6104     0.2740    10.7578 </r>
       <r>    43.8157     0.1957    10.7979 </r>
       <r>    44.0211     0.2653    10.8524 </r>
       <r>    44.2264     0.1611    10.8855 </r>
       <r>    44.4318     0.2501    10.9369 </r>
       <r>    44.6371     0.1896    10.9758 </r>
       <r>    44.8424     0.1066    10.9977 </r>
       <r>    45.0478     0.1311    11.0246 </r>
       <r>    45.2531     0.2512    11.0762 </r>
       <r>    45.4585     0.2387    11.1252 </r>
       <r>    45.6638     0.1594    11.1579 </r>
       <r>    45.8692     0.2258    11.2043 </r>
       <r>    46.0745     0.1982    11.2450 </r>
       <r>    46.2799     0.0893    11.2633 </r>
       <r>    46.4852     0.0916    11.2822 </r>
       <r>    46.6906     0.2490    11.3333 </r>
       <r>    46.8959     0.1739    11.3690 </r>
       <r>    47.1012     0.0891    11.3873 </r>
       <r>    47.3066     0.0537    11.3983 </r>
       <r>    47.5119     0.1730    11.4339 </r>
       <r>    47.7173     0.1640    11.4675 </r>
       <r>    47.9226     0.2304    11.5148 </r>
       <r>    48.1280     0.2982    11.5761 </r>
       <r>    48.3333     0.1892    11.6149 </r>
       <r>    48.5387     0.0631    11.6279 </r>
       <r>    48.7440     0.0053    11.6290 </r>
       <r>    48.9494     0.1871    11.6674 </r>
       <r>    49.1547     0.1869    11.7058 </r>
       <r>    49.3601     0.0762    11.7214 </r>
       <r>    49.5654     0.1615    11.7546 </r>
       <r>    49.7707     0.1065    11.7765 </r>
       <r>    49.9761     0.0471    11.7861 </r>
       <r>    50.1814     0.0497    11.7964 </r>
       <r>    50.3868     0.0801    11.8128 </r>
       <r>    50.5921     0.0735    11.8279 </r>
       <r>    50.7975     0.0754    11.8434 </r>
       <r>    51.0028     0.0584    11.8554 </r>
       <r>    51.2082     0.0286    11.8613 </r>
       <r>    51.4135     0.1029    11.8824 </r>
       <r>    51.6189     0.0489    11.8924 </r>
       <r>    51.8242     0.0837    11.9096 </r>
       <r>    52.0296     0.0339    11.9166 </r>
       <r>    52.2349    -0.0015    11.9163 </r>
       <r>    52.4402     0.0199    11.9204 </r>
       <r>    52.6456     0.0230    11.9251 </r>
       <r>    52.8509     0.0445    11.9342 </r>
       <r>    53.0563     0.0300    11.9404 </r>
       <r>    53.2616    -0.0014    11.9401 </r>
       <r>    53.4670    -0.0007    11.9399 </r>
       <r>    53.6723     0.0004    11.9400 </r>
       <r>    53.8777     0.0183    11.9438 </r>
       <r>    54.0830     0.0152    11.9469 </r>
       <r>    54.2884     0.0406    11.9552 </r>
       <r>    54.4937     0.0216    11.9597 </r>
       <r>    54.6990     0.0414    11.9682 </r>
       <r>    54.9044     0.0111    11.9704 </r>
       <r>    55.1097     0.0379    11.9782 </r>
       <r>    55.3151     0.0205    11.9824 </r>
       <r>    55.5204    -0.0019    11.9820 </r>
       <r>    55.7258    -0.0005    11.9819 </r>
       <r>    55.9311     0.0005    11.9820 </r>
       <r>    56.1365     0.0195    11.9860 </r>
       <r>    56.3418     0.0106    11.9882 </r>
       <r>    56.5472    -0.0013    11.9879 </r>
       <r>    56.7525     0.0005    11.9880 </r>
       <r>    56.9579     0.0187    11.9919 </r>
       <r>    57.1632     0.0174    11.9955 </r>
       <r>    57.3685     0.0205    11.9997 </r>
       <r>    57.5739     0.0022    12.0001 </r>
       <r>    57.7792    -0.0006    12.0000 </r>
       <r>    57.9846    -0.0000    12.0000 </r>
       <r>    58.1899    -0.0000    12.0000 </r>
       <r>    58.3953    -0.0000    12.0000 </r>
       <r>    58.6006    -0.0000    12.0000 </r>
       <r>    58.8060     0.0000    12.0000 </r>
       <r>    59.0113     0.0000    12.0000 </r>
       <r>    59.2167     0.0000    12.0000 </r>
       <r>    59.4220     0.0000    12.0000 </r>
       <r>    59.6274     0.0000    12.0000 </r>
       <r>    59.8327     0.0000    12.0000 </r>
       <r>    60.0380     0.0000    12.0000 </r>
      </set>
      <set comment="spin 2">
       <r>    -1.5657     0.0000     0.0000 </r>
       <r>    -1.3604     0.0000     0.0000 </r>
       <r>    -1.1551     0.0000     0.0000 </r>
       <r>    -0.9497     0.0000     0.0000 </r>
       <r>    -0.7444     0.0000     0.0000 </r>
       <r>    -0.5390    -0.0000    -0.0000 </r>
       <r>    -0.3337    -0.0000    -0.0000 </r>
       <r>    -0.1283    -0.0000    -0.0000 </r>
       <r>     0.0770    -0.0000    -0.0000 </r>
       <r>     0.2824    -0.0000    -0.0000 </r>
       <r>     0.4877    -0.0000    -0.0000 </r>
       <r>     0.6931    -0.0000    -0.0000 </r>
       <r>     0.8984    -0.0002    -0.0000 </r>
       <r>     1.1038     0.0006     0.0001 </r>
       <r>     1.3091     0.0065     0.0014 </r>
       <r>     1.5144     0.0169     0.0049 </r>
       <r>     1.7198     0.0219     0.0094 </r>
       <r>     1.9251     0.0228     0.0141 </r>
       <r>     2.1305     0.0292     0.0201 </r>
       <r>     2.3358     0.0414     0.0286 </r>
       <r>     2.5412     0.0363     0.0360 </r>
       <r>     2.7465     0.0263     0.0414 </r>
       <r>     2.9519     0.0497     0.0516 </r>
       <r>     3.1572     0.0705     0.0661 </r>
       <r>     3.3626     0.0381     0.0740 </r>
       <r>     3.5679     0.0414     0.0825 </r>
       <r>     3.7732     0.0746     0.0978 </r>
       <r>     3.9786     0.0678     0.1117 </r>
       <r>     4.1839     0.0671     0.1255 </r>
       <r>     4.3893     0.0808     0.1421 </r>
       <r>     4.5946     0.0866     0.1598 </r>
       <r>     4.8000     0.0793     0.1761 </r>
       <r>     5.0053     0.0938     0.1954 </r>
       <r>     5.2107     0.1431     0.2248 </r>
       <r>     5.4160     0.1286     0.2512 </r>
       <r>     5.6214     0.1286     0.2776 </r>
       <r>     5.8267     0.2213     0.3230 </r>
       <r>     6.0321     0.3864     0.4024 </r>
       <r>     6.2374     0.4126     0.4871 </r>
       <r>     6.4427     0.4831     0.5863 </r>
       <r>     6.6481     0.4805     0.6850 </r>
       <r>     6.8534     0.5627     0.8005 </r>
       <r>     7.0588     0.7509     0.9547 </r>
       <r>     7.2641     0.7942     1.1178 </r>
       <r>     7.4695     0.7628     1.2744 </r>
       <r>     7.6748     0.7096     1.4202 </r>
       <r>     7.8802     0.6936     1.5626 </r>
       <r>     8.0855     0.7191     1.7102 </r>
       <r>     8.2909     0.9193     1.8990 </r>
       <r>     8.4962     1.0133     2.1071 </r>
       <r>     8.7016     1.0598     2.3247 </r>
       <r>     8.9069     1.2433     2.5800 </r>
       <r>     9.1122     1.2667     2.8401 </r>
       <r>     9.3176     1.2068     3.0879 </r>
       <r>     9.5229     0.9326     3.2794 </r>
       <r>     9.7283     0.8559     3.4552 </r>
       <r>     9.9336     1.0234     3.6654 </r>
       <r>    10.1390     1.1496     3.9014 </r>
       <r>    10.3443     1.0699     4.1211 </r>
       <r>    10.5497     0.9102     4.3080 </r>
       <r>    10.7550     1.0125     4.5159 </r>
       <r>    10.9604     1.4258     4.8087 </r>
       <r>    11.1657     1.5394     5.1248 </r>
       <r>    11.3710     0.7572     5.2803 </r>
       <r>    11.5764     0.2078     5.3230 </r>
       <r>    11.7817     0.0981     5.3431 </r>
       <r>    11.9871     0.2128     5.3868 </r>
       <r>    12.1924     0.1838     5.4246 </r>
       <r>    12.3978     0.1075     5.4466 </r>
       <r>    12.6031     0.1369     5.4748 </r>
       <r>    12.8085     0.1629     5.5082 </r>
       <r>    13.0138     0.1766     5.5445 </r>
       <r>    13.2192     0.0986     5.5647 </r>
       <r>    13.4245     0.1502     5.5956 </r>
       <r>    13.6299     0.1690     5.6303 </r>
       <r>    13.8352     0.0823     5.6472 </r>
       <r>    14.0405     0.1160     5.6710 </r>
       <r>    14.2459     0.1014     5.6918 </r>
       <r>    14.4512     0.1677     5.7263 </r>
       <r>    14.6566     0.1303     5.7530 </r>
       <r>    14.8619     0.1155     5.7767 </r>
       <r>    15.0673     0.1166     5.8007 </r>
       <r>    15.2726     0.0370     5.8083 </r>
       <r>    15.4780     0.0628     5.8212 </r>
       <r>    15.6833     0.1211     5.8461 </r>
       <r>    15.8887     0.1214     5.8710 </r>
       <r>    16.0940     0.1256     5.8968 </r>
       <r>    16.2994     0.0666     5.9105 </r>
       <r>    16.5047     0.0023     5.9109 </r>
       <r>    16.7100     0.0799     5.9273 </r>
       <r>    16.9154     0.0717     5.9421 </r>
       <r>    17.1207     0.0495     5.9522 </r>
       <r>    17.3261     0.0721     5.9670 </r>
       <r>    17.5314     0.0435     5.9759 </r>
       <r>    17.7368     0.0175     5.9795 </r>
       <r>    17.9421     0.1315     6.0065 </r>
       <r>    18.1475     0.1255     6.0323 </r>
       <r>    18.3528     0.1712     6.0675 </r>
       <r>    18.5582     0.2263     6.1139 </r>
       <r>    18.7635     0.1228     6.1391 </r>
       <r>    18.9689     0.1237     6.1645 </r>
       <r>    19.1742     0.1161     6.1884 </r>
       <r>    19.3795     0.1401     6.2172 </r>
       <r>    19.5849     0.1470     6.2473 </r>
       <r>    19.7902     0.1244     6.2729 </r>
       <r>    19.9956     0.1325     6.3001 </r>
       <r>    20.2009     0.0786     6.3162 </r>
       <r>    20.4063     0.0818     6.3330 </r>
       <r>    20.6116     0.1301     6.3597 </r>
       <r>    20.8170     0.1295     6.3863 </r>
       <r>    21.0223     0.0818     6.4031 </r>
       <r>    21.2277     0.1034     6.4244 </r>
       <r>    21.4330     0.1285     6.4507 </r>
       <r>    21.6383     0.1412     6.4797 </r>
       <r>    21.8437     0.1821     6.5171 </r>
       <r>    22.0490     0.1159     6.5409 </r>
       <r>    22.2544     0.1428     6.5703 </r>
       <r>    22.4597     0.2486     6.6213 </r>
       <r>    22.6651     0.1104     6.6440 </r>
       <r>    22.8704     0.0994     6.6644 </r>
       <r>    23.0758     0.2006     6.7056 </r>
       <r>    23.2811     0.2307     6.7530 </r>
       <r>    23.4865     0.1599     6.7858 </r>
       <r>    23.6918     0.0899     6.8042 </r>
       <r>    23.8972     0.2964     6.8651 </r>
       <r>    24.1025     0.2167     6.9096 </r>
       <r>    24.3078     0.1149     6.9332 </r>
       <r>    24.5132     0.1031     6.9544 </r>
       <r>    24.7185     0.1827     6.9919 </r>
       <r>    24.9239     0.2030     7.0336 </r>
       <r>    25.1292     0.2361     7.0820 </r>
       <r>    25.3346     0.1548     7.1138 </r>
       <r>    25.5399     0.1541     7.1455 </r>
       <r>    25.7453     0.1492     7.1761 </r>
       <r>    25.9506     0.2452     7.2265 </r>
       <r>    26.1560     0.2608     7.2800 </r>
       <r>    26.3613     0.1573     7.3123 </r>
       <r>    26.5667     0.1094     7.3348 </r>
       <r>    26.7720     0.2087     7.3776 </r>
       <r>    26.9773     0.3024     7.4397 </r>
       <r>    27.1827     0.2713     7.4954 </r>
       <r>    27.3880     0.1904     7.5346 </r>
       <r>    27.5934     0.0579     7.5464 </r>
       <r>    27.7987     0.1887     7.5852 </r>
       <r>    28.0041     0.2858     7.6439 </r>
       <r>    28.2094     0.2586     7.6970 </r>
       <r>    28.4148     0.1559     7.7290 </r>
       <r>    28.6201     0.1246     7.7546 </r>
       <r>    28.8255     0.2294     7.8017 </r>
       <r>    29.0308     0.1434     7.8311 </r>
       <r>    29.2361     0.1467     7.8613 </r>
       <r>    29.4415     0.2521     7.9130 </r>
       <r>    29.6468     0.2493     7.9642 </r>
       <r>    29.8522     0.2069     8.0067 </r>
       <r>    30.0575     0.1416     8.0358 </r>
       <r>    30.2629     0.1152     8.0595 </r>
       <r>    30.4682     0.1808     8.0966 </r>
       <r>    30.6736     0.2337     8.1446 </r>
       <r>    30.8789     0.0760     8.1602 </r>
       <r>    31.0843     0.1231     8.1855 </r>
       <r>    31.2896     0.1171     8.2095 </r>
       <r>    31.4950     0.2128     8.2532 </r>
       <r>    31.7003     0.2278     8.3000 </r>
       <r>    31.9056     0.1819     8.3373 </r>
       <r>    32.1110     0.1407     8.3662 </r>
       <r>    32.3163     0.0933     8.3854 </r>
       <r>    32.5217     0.1324     8.4126 </r>
       <r>    32.7270     0.1904     8.4517 </r>
       <r>    32.9324     0.1998     8.4927 </r>
       <r>    33.1377     0.1304     8.5195 </r>
       <r>    33.3431     0.1711     8.5546 </r>
       <r>    33.5484     0.1950     8.5947 </r>
       <r>    33.7538     0.1701     8.6296 </r>
       <r>    33.9591     0.2154     8.6738 </r>
       <r>    34.1645     0.1974     8.7144 </r>
       <r>    34.3698     0.2086     8.7572 </r>
       <r>    34.5751     0.2553     8.8096 </r>
       <r>    34.7805     0.3040     8.8720 </r>
       <r>    34.9858     0.2226     8.9177 </r>
       <r>    35.1912     0.1957     8.9579 </r>
       <r>    35.3965     0.2163     9.0023 </r>
       <r>    35.6019     0.2332     9.0502 </r>
       <r>    35.8072     0.1838     9.0880 </r>
       <r>    36.0126     0.1979     9.1286 </r>
       <r>    36.2179     0.2435     9.1786 </r>
       <r>    36.4233     0.3533     9.2512 </r>
       <r>    36.6286     0.2915     9.3110 </r>
       <r>    36.8339     0.1823     9.3485 </r>
       <r>    37.0393     0.2704     9.4040 </r>
       <r>    37.2446     0.1879     9.4426 </r>
       <r>    37.4500     0.1431     9.4720 </r>
       <r>    37.6553     0.1881     9.5106 </r>
       <r>    37.8607     0.3533     9.5831 </r>
       <r>    38.0660     0.2969     9.6441 </r>
       <r>    38.2714     0.2003     9.6852 </r>
       <r>    38.4767     0.2502     9.7366 </r>
       <r>    38.6821     0.2564     9.7893 </r>
       <r>    38.8874     0.1139     9.8127 </r>
       <r>    39.0928     0.1031     9.8338 </r>
       <r>    39.2981     0.2099     9.8769 </r>
       <r>    39.5034     0.0979     9.8970 </r>
       <r>    39.7088     0.1402     9.9258 </r>
       <r>    39.9141     0.1470     9.9560 </r>
       <r>    40.1195     0.1861     9.9942 </r>
       <r>    40.3248     0.1878    10.0328 </r>
       <r>    40.5302     0.1387    10.0613 </r>
       <r>    40.7355     0.1929    10.1009 </r>
       <r>    40.9409     0.1108    10.1236 </r>
       <r>    41.1462     0.0540    10.1347 </r>
       <r>    41.3516     0.1597    10.1675 </r>
       <r>    41.5569     0.2821    10.2254 </r>
       <r>    41.7623     0.1404    10.2543 </r>
       <r>    41.9676     0.1631    10.2878 </r>
       <r>    42.1729     0.2268    10.3343 </r>
       <r>    42.3783     0.1736    10.3700 </r>
       <r>    42.5836     0.1538    10.4015 </r>
       <r>    42.7890     0.3533    10.4741 </r>
       <r>    42.9943     0.4254    10.5614 </r>
       <r>    43.1997     0.2574    10.6143 </r>
       <r>    43.4050     0.3711    10.6905 </r>
       <r>    43.6104     0.3325    10.7588 </r>
       <r>    43.8157     0.1501    10.7896 </r>
       <r>    44.0211     0.2255    10.8359 </r>
       <r>    44.2264     0.2065    10.8783 </r>
       <r>    44.4318     0.2598    10.9317 </r>
       <r>    44.6371     0.2105    10.9749 </r>
       <r>    44.8424     0.1024    10.9959 </r>
       <r>    45.0478     0.1107    11.0186 </r>
       <r>    45.2531     0.2382    11.0676 </r>
       <r>    45.4585     0.2606    11.1211 </r>
       <r>    45.6638     0.1591    11.1537 </r>
       <r>    45.8692     0.2357    11.2021 </r>
       <r>    46.0745     0.2061    11.2445 </r>
       <r>    46.2799     0.0735    11.2595 </r>
       <r>    46.4852     0.1026    11.2806 </r>
       <r>    46.6906     0.2086    11.3235 </r>
       <r>    46.8959     0.1971    11.3639 </r>
       <r>    47.1012     0.1025    11.3850 </r>
       <r>    47.3066     0.0627    11.3979 </r>
       <r>    47.5119     0.1124    11.4209 </r>
       <r>    47.7173     0.2200    11.4661 </r>
       <r>    47.9226     0.2140    11.5101 </r>
       <r>    48.1280     0.3109    11.5739 </r>
       <r>    48.3333     0.1869    11.6123 </r>
       <r>    48.5387     0.0628    11.6252 </r>
       <r>    48.7440     0.0157    11.6284 </r>
       <r>    48.9494     0.1359    11.6563 </r>
       <r>    49.1547     0.2119    11.6998 </r>
       <r>    49.3601     0.1123    11.7229 </r>
       <r>    49.5654     0.1608    11.7559 </r>
       <r>    49.7707     0.0847    11.7733 </r>
       <r>    49.9761     0.0563    11.7849 </r>
       <r>    50.1814     0.0682    11.7989 </r>
       <r>    50.3868     0.0602    11.8112 </r>
       <r>    50.5921     0.0740    11.8264 </r>
       <r>    50.7975     0.0853    11.8439 </r>
       <r>    51.0028     0.0566    11.8556 </r>
       <r>    51.2082     0.0262    11.8609 </r>
       <r>    51.4135     0.0920    11.8798 </r>
       <r>    51.6189     0.0704    11.8943 </r>
       <r>    51.8242     0.0828    11.9113 </r>
       <r>    52.0296     0.0252    11.9165 </r>
       <r>    52.2349     0.0076    11.9180 </r>
       <r>    52.4402     0.0182    11.9218 </r>
       <r>    52.6456     0.0159    11.9250 </r>
       <r>    52.8509     0.0461    11.9345 </r>
       <r>    53.0563     0.0288    11.9404 </r>
       <r>    53.2616    -0.0016    11.9401 </r>
       <r>    53.4670    -0.0007    11.9399 </r>
       <r>    53.6723     0.0007    11.9401 </r>
       <r>    53.8777     0.0186    11.9439 </r>
       <r>    54.0830     0.0156    11.9471 </r>
       <r>    54.2884     0.0408    11.9555 </r>
       <r>    54.4937     0.0280    11.9612 </r>
       <r>    54.6990     0.0390    11.9692 </r>
       <r>    54.9044     0.0072    11.9707 </r>
       <r>    55.1097     0.0412    11.9792 </r>
       <r>    55.3151     0.0157    11.9824 </r>
       <r>    55.5204    -0.0018    11.9820 </r>
       <r>    55.7258    -0.0005    11.9819 </r>
       <r>    55.9311     0.0009    11.9821 </r>
       <r>    56.1365     0.0201    11.9862 </r>
       <r>    56.3418     0.0096    11.9882 </r>
       <r>    56.5472    -0.0013    11.9879 </r>
       <r>    56.7525     0.0005    11.9880 </r>
       <r>    56.9579     0.0188    11.9919 </r>
       <r>    57.1632     0.0175    11.9955 </r>
       <r>    57.3685     0.0204    11.9997 </r>
       <r>    57.5739     0.0020    12.0001 </r>
       <r>    57.7792    -0.0005    12.0000 </r>
       <r>    57.9846    -0.0000    12.0000 </r>
       <r>    58.1899    -0.0000    12.0000 </r>
       <r>    58.3953    -0.0000    12.0000 </r>
       <r>    58.6006    -0.0000    12.0000 </r>
       <r>    58.8060     0.0000    12.0000 </r>
       <r>    59.0113     0.0000    12.0000 </r>
       <r>    59.2167     0.0000    12.0000 </r>
       <r>    59.4220     0.0000    12.0000 </r>
       <r>    59.6274     0.0000    12.0000 </r>
       <r>    59.8327     0.0000    12.0000 </r>
       <r>    60.0380     0.0000    12.0000 </r>
      </set>
     </set>
    </array>
   </total>
  </dos>
 </calculation>
 <structure name="finalpos" >
  <crystal>
   <varray name="basis" >
    <v>       0.00000000       1.70000000       1.70000000 </v>
    <v>       1.70000000       0.00000000       1.70000000 </v>
    <v>       1.70000000       1.70000000       0.00000000 </v>
   </varray>
   <i name="volume">      9.82600000 </i>
   <varray name="rec_basis" >
    <v>      -0.29411765       0.29411765       0.29411765 </v>
    <v>       0.29411765      -0.29411765       0.29411765 </v>
    <v>       0.29411765       0.29411765      -0.29411765 </v>
   </varray>
  </crystal>
  <varray name="positions" >
   <v>       0.00000000       0.00000000       0.00000000 </v>
  </varray>
 </structure>
</modeling>
