FCC Au                                  
   3.80000000000000     
     0.000000    0.500000    0.500000
     0.500000    0.000000    0.500000
     0.500000    0.500000    0.000000
   Au
     1
Direct
  0.000000  0.000000  0.000000
 
   20   20   20
  65.749      62.758      55.198      45.910      36.741      27.955      19.639      12.723      8.2680      6.2246    
  5.6463      6.2246      8.2680      12.723      19.639      27.955      36.741      45.910      55.198      62.758    
  62.758      57.536      49.264      40.294      31.553      23.102      15.508      9.9161      6.8735      5.6946    
  5.6967      6.8762      9.9160      15.511      23.113      31.561      40.276      49.208      57.469      62.728    
  55.198      49.264      41.583      33.475      25.357      17.689      11.491      7.6148      5.8330      5.3120    
  5.8349      7.6143      11.490      17.698      25.375      33.480      41.552      49.203      55.147      57.469    
  45.910      40.294      33.475      26.136      18.871      12.615      8.2912      6.0202      5.0778      5.0783    
  6.0195      8.2875      12.612      18.875      26.148      33.483      40.292      45.900      49.203      49.208    
  36.741      31.553      25.357      18.871      13.021      8.6997      6.1870      4.9621      4.5909      4.9635    
  6.1869      8.6946      13.012      18.862      25.358      31.566      36.762      40.292      41.552      40.276    
  27.955      23.102      17.689      12.615      8.6997      6.2562      4.9216      4.3271      4.3279      4.9248    
  6.2609      8.7001      12.604      17.669      23.084      27.949      31.566      33.483      33.480      31.561    
  19.639      15.508      11.491      8.2912      6.1870      4.9216      4.2452      4.0397      4.2447      4.9265    
  6.1997      8.3036      11.491      15.489      19.609      23.084      25.358      26.148      25.375      23.113    
  12.723      9.9161      7.6148      6.0202      4.9621      4.3271      4.0397      4.0372      4.3226      4.9627    
  6.0324      7.6369      9.9355      12.724      15.489      17.669      18.862      18.875      17.698      15.511    
  8.2680      6.8735      5.8330      5.0778      4.5909      4.3279      4.2447      4.3226      4.5791      5.0654    
  5.8332      6.8936      8.2978      9.9355      11.491      12.604      13.012      12.612      11.490      9.9160    
  6.2246      5.6946      5.3120      5.0783      4.9635      4.9248      4.9265      4.9627      5.0654      5.2890    
  5.6763      6.2245      6.8936      7.6369      8.3036      8.7001      8.6946      8.2875      7.6143      6.8762    
  5.6463      5.6967      5.8349      6.0195      6.1869      6.2609      6.1997      6.0324      5.8332      5.6763    
  5.6175      5.6763      5.8332      6.0324      6.1997      6.2609      6.1869      6.0195      5.8349      5.6967    
  6.2246      6.8762      7.6143      8.2875      8.6946      8.7001      8.3036      7.6369      6.8936      6.2245    
  5.6763      5.2890      5.0654      4.9627      4.9265      4.9248      4.9635      5.0783      5.3120      5.6946    
  8.2680      9.9160      11.490      12.612      13.012      12.604      11.491      9.9355      8.2978      6.8936    
  5.8332      5.0654      4.5791      4.3226      4.2447      4.3279      4.5909      5.0778      5.8330      6.8735    
  12.723      15.511      17.698      18.875      18.862      17.669      15.489      12.724      9.9355      7.6369    
  6.0324      4.9627      4.3226      4.0372      4.0397      4.3271      4.9621      6.0202      7.6148      9.9161    
  19.639      23.113      25.375      26.148      25.358      23.084      19.609      15.489      11.491      8.3036    
  6.1997      4.9265      4.2447      4.0397      4.2452      4.9216      6.1870      8.2912      11.491      15.508    
  27.955      31.561      33.480      33.483      31.566      27.949      23.084      17.669      12.604      8.7001    
  6.2609      4.9248      4.3279      4.3271      4.9216      6.2562      8.6997      12.615      17.689      23.102    
  36.741      40.276      41.552      40.292      36.762      31.566      25.358      18.862      13.012      8.6946    
  6.1869      4.9635      4.5909      4.9621      6.1870      8.6997      13.021      18.871      25.357      31.553    
  45.910      49.208      49.203      45.900      40.292      33.483      26.148      18.875      12.612      8.2875    
  6.0195      5.0783      5.0778      6.0202      8.2912      12.615      18.871      26.136      33.475      40.294    
  55.198      57.469      55.147      49.203      41.552      33.480      25.375      17.698      11.490      7.6143    
  5.8349      5.3120      5.8330      7.6148      11.491      17.689      25.357      33.475      41.583      49.264    
  62.758      62.728      57.469      49.208      40.276      31.561      23.113      15.511      9.9160      6.8762    
  5.6967      5.6946      6.8735      9.9161      15.508      23.102      31.553      40.294      49.264      57.536    
  62.758      57.536      49.264      40.294      31.553      23.102      15.508      9.9161      6.8735      5.6946    
  5.6967      6.8762      9.9160      15.511      23.113      31.561      40.276      49.208      57.469      62.728    
  57.536      51.072      42.861      34.415      26.110      18.271      11.872      7.8241      5.9644      5.4262    
  5.9666      7.8235      11.872      18.285      26.134      34.417      42.807      50.974      57.456      60.023    
  49.264      42.861      35.413      27.682      20.094      13.463      8.7758      6.2873      5.2782      5.2790    
  6.2865      8.7720      13.465      20.113      27.706      35.412      42.820      49.206      53.101      53.128    
  40.294      34.415      27.682      20.726      14.348      9.4872      6.5984      5.2272      4.8140      5.2292    
  6.5966      9.4800      14.343      20.733      27.701      34.433      40.305      44.496      46.046      44.494    
  31.553      26.110      20.094      14.348      9.7526      6.7993      5.2308      4.5398      4.5416      5.2338    
  6.7980      9.7436      14.334      20.087      26.118      31.577      35.756      38.043      38.031      35.729    
  23.102      18.271      13.463      9.4872      6.7993      5.2410      4.4183      4.1707      4.4191      5.2455    
  6.8060      9.4875      13.450      18.251      23.088      27.148      29.822      30.749      29.817      27.149    
  15.508      11.872      8.7758      6.5984      5.2308      4.4183      4.0564      4.0546      4.4176      5.2388    
  6.6149      8.7899      11.871      15.490      18.981      21.684      23.144      23.152      21.706      19.008    
  9.9161      7.8241      6.2873      5.2272      4.5398      4.1707      4.0546      4.1658      4.5340      5.2282    
  6.3014      7.8482      9.9361      12.304      14.481      15.999      16.548      16.016      14.497      12.303    
  6.8735      5.9644      5.2782      4.8140      4.5416      4.4191      4.4176      4.5340      4.7984      5.2635    
  5.9654      6.8944      8.0609      9.3306      10.426      11.064      11.065      10.424      9.3137      8.0333    
  5.6946      5.4262      5.2790      5.2292      5.2338      5.2455      5.2388      5.2282      5.2635      5.4020    
  5.6771      6.0782      6.5575      7.0547      7.4436      7.5883      7.4321      7.0366      6.5431      6.0786    
  5.6967      5.9666      6.2865      6.5966      6.7980      6.8060      6.6149      6.3014      5.9654      5.6771    
  5.4912      5.4274      5.4642      5.5456      5.6048      5.5993      5.5364      5.4653      5.4456      5.5183    
  6.8762      7.8235      8.7720      9.4800      9.7436      9.4875      8.7899      7.8482      6.8944      6.0782    
  5.4274      4.9752      4.7083      4.5774      4.5382      4.5781      4.7169      4.9934      5.4439      6.0786    
  9.9160      11.872      13.465      14.343      14.334      13.450      11.871      9.9361      8.0609      6.5575    
  5.4642      4.7083      4.2612      4.0604      4.0630      4.2689      4.7171      5.4642      6.5409      8.0333    
  15.511      18.285      20.113      20.733      20.087      18.251      15.490      12.304      9.3306      7.0547    
  5.5456      4.5774      4.0604      3.9039      4.0630      4.5775      5.5373      7.0377      9.3142      12.303    
  23.113      26.134      27.706      27.701      26.118      23.088      18.981      14.481      10.426      7.4436    
  5.6048      4.5382      4.0630      4.0630      4.5357      5.5969      7.4350      10.427      14.497      19.008    
  31.561      34.417      35.412      34.433      31.577      27.148      21.684      15.999      11.064      7.5883    
  5.5993      4.5781      4.2689      4.5775      5.5969      7.5872      11.071      16.017      21.700      27.149    
  40.276      42.807      42.820      40.305      35.756      29.822      23.144      16.548      11.065      7.4321    
  5.5364      4.7169      4.7171      5.5373      7.4350      11.071      16.555      23.145      29.809      35.729    
  49.208      50.974      49.206      44.496      38.043      30.749      23.152      16.016      10.424      7.0366    
  5.4653      4.9934      5.4642      7.0377      10.427      16.017      23.145      30.736      38.033      44.494    
  57.469      57.456      53.101      46.046      38.031      29.817      21.706      14.497      9.3137      6.5431    
  5.4456      5.4439      6.5409      9.3142      14.497      21.700      29.809      38.033      46.066      53.128    
  62.728      60.023      53.128      44.494      35.729      27.149      19.008      12.303      8.0333      6.0786    
  5.5183      6.0786      8.0333      12.303      19.008      27.149      35.729      44.494      53.128      60.023    
  55.198      49.264      41.583      33.475      25.357      17.689      11.491      7.6148      5.8330      5.3120    
  5.8349      7.6143      11.490      17.698      25.375      33.480      41.552      49.203      55.147      57.469    
  49.264      42.861      35.413      27.682      20.094      13.463      8.7758      6.2873      5.2782      5.2790    
  6.2865      8.7720      13.465      20.113      27.706      35.412      42.820      49.206      53.101      53.128    
  41.583      35.413      28.473      21.360      14.812      9.7701      6.7471      5.3222      4.8938      5.3239    
  6.7443      9.7630      14.812      21.377      28.500      35.431      41.582      46.058      47.735      46.066    
  33.475      27.682      21.360      15.287      10.344      7.1083      5.4032      4.6593      4.6612      5.4051    
  7.1037      10.332      15.278      21.366      27.711      33.519      38.073      40.622      40.606      38.033    
  25.357      20.094      14.812      10.344      7.2472      5.4673      4.5431      4.2659      4.5445      5.4693    
  7.2453      10.332      14.794      20.086      25.374      29.846      32.835      33.876      32.804      29.809    
  17.689      13.463      9.7701      7.1083      5.4673      4.5102      4.0872      4.0861      4.5108      5.4740    
  7.1164      9.7685      13.448      17.671      21.692      24.792      26.465      26.462      24.790      21.700    
  11.491      8.7758      6.7471      5.4032      4.5431      4.0872      3.9463      4.0837      4.5432      5.4129    
  6.7636      8.7887      11.490      14.482      17.175      19.026      19.687      19.041      17.196      14.497    
  7.6148      6.2873      5.3222      4.6593      4.2659      4.0861      4.0837      4.2593      4.6521      5.3225    
  6.3013      7.6377      9.3317      11.129      12.636      13.497      13.503      12.646      11.127      9.3142    
  5.8330      5.2782      4.8938      4.6612      4.5445      4.5108      4.5432      4.6521      4.8761      5.2633    
  5.8345      6.5591      7.4082      8.2614      8.9054      9.1456      8.9014      8.2481      7.3863      6.5409    
  5.3120      5.2790      5.3239      5.4051      5.4693      5.4740      5.4129      5.3225      5.2633      5.2900    
  5.4288      5.6686      5.9603      6.2344      6.4039      6.3986      6.2220      5.9496      5.6692      5.4439    
  5.8349      6.2865      6.7443      7.1037      7.2453      7.1164      6.7636      6.3013      5.8345      5.4288    
  5.1396      4.9819      4.9284      4.9267      4.9291      4.9213      4.9283      4.9954      5.1620      5.4456    
  7.6143      8.7720      9.7630      10.332      10.332      9.7685      8.7887      7.6377      6.5591      5.6686    
  4.9819      4.5227      4.2591      4.1419      4.1423      4.2635      4.5341      4.9942      5.6692      6.5431    
  11.490      13.465      14.812      15.278      14.794      13.448      11.490      9.3317      7.4082      5.9603    
  4.9284      4.2591      3.9016      3.7925      3.9057      4.2643      4.9282      5.9482      7.3863      9.3137    
  17.698      20.113      21.377      21.366      20.086      17.671      14.482      11.129      8.2614      6.2344    
  4.9267      4.1419      3.7925      3.7937      4.1426      4.9218      6.2229      8.2497      11.127      14.497    
  25.375      27.706      28.500      27.711      25.374      21.692      17.175      12.636      8.9054      6.4039    
  4.9291      4.1423      3.9057      4.1426      4.9256      6.3976      8.9053      12.650      17.196      21.706    
  33.480      35.412      35.431      33.519      29.846      24.792      19.026      13.497      9.1456      6.3986    
  4.9213      4.2635      4.2643      4.9218      6.3976      9.1486      13.510      19.041      24.790      29.817    
  41.552      42.820      41.582      38.073      32.835      26.465      19.687      13.503      8.9014      6.2220    
  4.9283      4.5341      4.9282      6.2229      8.9053      13.510      19.690      26.454      32.804      38.031    
  49.203      49.206      46.058      40.622      33.876      26.462      19.041      12.646      8.2481      5.9496    
  4.9954      4.9942      5.9482      8.2497      12.650      19.041      26.454      33.861      40.606      46.046    
  55.147      53.101      47.735      40.606      32.804      24.790      17.196      11.127      7.3863      5.6692    
  5.1620      5.6692      7.3863      11.127      17.196      24.790      32.804      40.606      47.735      53.101    
  57.469      53.128      46.066      38.033      29.809      21.700      14.497      9.3142      6.5409      5.4439    
  5.4456      6.5431      9.3137      14.497      21.706      29.817      38.031      46.046      53.101      57.456    
  45.910      40.294      33.475      26.136      18.871      12.615      8.2912      6.0202      5.0778      5.0783    
  6.0195      8.2875      12.612      18.875      26.148      33.483      40.292      45.900      49.203      49.208    
  40.294      34.415      27.682      20.726      14.348      9.4872      6.5984      5.2272      4.8140      5.2292    
  6.5966      9.4800      14.343      20.733      27.701      34.433      40.305      44.496      46.046      44.494    
  33.475      27.682      21.360      15.287      10.344      7.1083      5.4032      4.6593      4.6612      5.4051    
  7.1037      10.332      15.278      21.366      27.711      33.519      38.073      40.622      40.606      38.033    
  26.136      20.726      15.287      10.652      7.4108      5.5487      4.5890      4.3011      4.5901      5.5496    
  7.4063      10.637      15.268      20.724      26.168      30.793      33.906      34.991      33.861      30.736    
  18.871      14.348      10.344      7.4108      5.6048      4.5669      4.1098      4.1092      4.5679      5.6091    
  7.4101      10.328      14.323      18.859      23.161      26.485      28.280      28.264      26.454      23.145    
  12.615      9.4872      7.1083      5.5487      4.5669      4.0503      3.8933      4.0484      4.5695      5.5577    
  7.1152      9.4817      12.597      15.998      19.030      21.102      21.834      21.104      19.041      16.017    
  8.2912      6.5984      5.4032      4.5890      4.1098      3.8933      3.8908      4.1056      4.5899      5.4129    
  6.6129      8.3011      10.425      12.635      14.458      15.486      15.494      14.475      12.650      10.427    
  6.0202      5.2272      4.6593      4.3011      4.1092      4.0484      4.1056      4.2936      4.6515      5.2273    
  6.0323      7.0557      8.2617      9.4438      10.315      10.638      10.319      9.4433      8.2497      7.0377    
  5.0778      4.8140      4.6612      4.5901      4.5679      4.5695      4.5899      4.6515      4.7967      5.0648    
  5.4654      5.9614      6.4927      6.9700      7.2578      7.2552      6.9610      6.4777      5.9482      5.4642    
  5.0783      5.2292      5.4051      5.5496      5.6091      5.5577      5.4129      5.2273      5.0648      4.9757    
  4.9824      5.0747      5.2104      5.3278      5.3714      5.3210      5.2032      5.0754      4.9942      4.9934    
  6.0195      6.5966      7.1037      7.4063      7.4101      7.1152      6.6129      6.0323      5.4654      4.9824    
  4.6343      4.4245      4.3204      4.2798      4.2778      4.3193      4.4322      4.6501      4.9954      5.4653    
  8.2875      9.4800      10.332      10.637      10.328      9.4817      8.3011      7.0557      5.9614      5.0747    
  4.4245      4.0113      3.7906      3.7219      3.7922      4.0167      4.4317      5.0754      5.9496      7.0366    
  12.612      14.343      15.278      15.268      14.323      12.597      10.425      8.2617      6.4927      5.2104    
  4.3204      3.7906      3.5524      3.5538      3.7933      4.3200      5.2024      6.4777      8.2481      10.424    
  18.875      20.733      21.366      20.724      18.859      15.998      12.635      9.4438      6.9700      5.3278    
  4.2798      3.7219      3.5538      3.7236      4.2782      5.3205      6.9618      9.4433      12.646      16.016    
  26.148      27.701      27.711      26.168      23.161      19.030      14.458      10.315      7.2578      5.3714    
  4.2778      3.7922      3.7933      4.2782      5.3680      7.2559      10.323      14.475      19.041      23.152    
  33.483      34.433      33.519      30.793      26.485      21.102      15.486      10.638      7.2552      5.3210    
  4.3193      4.0167      4.3200      5.3205      7.2559      10.645      15.499      21.104      26.462      30.749    
  40.292      40.305      38.073      33.906      28.280      21.834      15.494      10.319      6.9610      5.2032    
  4.4322      4.4317      5.2024      6.9618      10.323      15.499      21.833      28.264      33.876      38.043    
  45.900      44.496      40.622      34.991      28.264      21.104      14.475      9.4433      6.4777      5.0754    
  4.6501      5.0754      6.4777      9.4433      14.475      21.104      28.264      34.991      40.622      44.496    
  49.203      46.046      40.606      33.861      26.454      19.041      12.650      8.2497      5.9482      4.9942    
  4.9954      5.9496      8.2481      12.646      19.041      26.462      33.876      40.622      46.058      49.206    
  49.208      44.494      38.033      30.736      23.145      16.017      10.427      7.0377      5.4642      4.9934    
  5.4653      7.0366      10.424      16.016      23.152      30.749      38.043      44.496      49.206      50.974    
  36.741      31.553      25.357      18.871      13.021      8.6997      6.1870      4.9621      4.5909      4.9635    
  6.1869      8.6946      13.012      18.862      25.358      31.566      36.762      40.292      41.552      40.276    
  31.553      26.110      20.094      14.348      9.7526      6.7993      5.2308      4.5398      4.5416      5.2338    
  6.7980      9.7436      14.334      20.087      26.118      31.577      35.756      38.043      38.031      35.729    
  25.357      20.094      14.812      10.344      7.2472      5.4673      4.5431      4.2659      4.5445      5.4693    
  7.2453      10.332      14.794      20.086      25.374      29.846      32.835      33.876      32.804      29.809    
  18.871      14.348      10.344      7.4108      5.6048      4.5669      4.1098      4.1092      4.5679      5.6091    
  7.4101      10.328      14.323      18.859      23.161      26.485      28.280      28.264      26.454      23.145    
  13.021      9.7526      7.2472      5.6048      4.5783      4.0401      3.8780      4.0394      4.5821      5.6124    
  7.2474      9.7363      12.996      16.538      19.690      21.840      22.596      21.833      19.690      16.555    
  8.6997      6.7993      5.4673      4.5669      4.0401      3.8057      3.8042      4.0391      4.5716      5.4768    
  6.8054      8.6945      11.055      13.490      15.484      16.601      16.607      15.499      13.510      11.071    
  6.1870      5.2308      4.5431      4.1098      3.8780      3.8042      3.8747      4.1066      4.5448      5.2395    
  6.1991      7.4422      8.9017      10.311      11.335      11.713      11.346      10.323      8.9053      7.4350    
  4.9621      4.5398      4.2659      4.1092      4.0394      4.0391      4.1066      4.2594      4.5331      4.9620    
  5.5463      6.2350      6.9690      7.6143      7.9971      7.9979      7.6136      6.9618      6.2229      5.5373    
  4.5909      4.5416      4.5445      4.5679      4.5821      4.5716      4.5448      4.5331      4.5771      4.7074    
  4.9284      5.2103      5.4930      5.7055      5.7843      5.7002      5.4840      5.2024      4.9282      4.7171    
  4.9635      5.2338      5.4693      5.6091      5.6124      5.4768      5.2395      4.9620      4.7074      4.5217    
  4.4235      4.4025      4.4244      4.4476      4.4451      4.4202      4.4029      4.4317      4.5341      4.7169    
  6.1869      6.7980      7.2453      7.4101      7.2474      6.8054      6.1991      5.5463      4.9284      4.4235    
  4.0661      3.8457      3.7308      3.6947      3.7300      3.8490      4.0753      4.4322      4.9283      5.5364    
  8.6946      9.7436      10.332      10.328      9.7363      8.6945      7.4422      6.2350      5.2103      4.4025    
  3.8457      3.5135      3.3610      3.3614      3.5154      3.8489      4.4029      5.2032      6.2220      7.4321    
  13.012      14.334      14.794      14.323      12.996      11.055      8.9017      6.9690      5.4930      4.4244    
  3.7308      3.3610      3.2480      3.3627      3.7309      4.4196      5.4840      6.9610      8.9014      11.065    
  18.862      20.087      20.086      18.859      16.538      13.490      10.311      7.6143      5.7055      4.4476    
  3.6947      3.3614      3.3627      3.6958      4.4444      5.7000      7.6136      10.319      13.503      16.548    
  25.358      26.118      25.374      23.161      19.690      15.484      11.335      7.9971      5.7843      4.4451    
  3.7300      3.5154      3.7309      4.4444      5.7830      8.0007      11.346      15.494      19.687      23.144    
  31.566      31.577      29.846      26.485      21.840      16.601      11.713      7.9979      5.7002      4.4202    
  3.8490      3.8489      4.4196      5.7000      8.0007      11.720      16.607      21.834      26.465      29.822    
  36.762      35.756      32.835      28.280      22.596      16.607      11.346      7.6136      5.4840      4.4029    
  4.0753      4.4029      5.4840      7.6136      11.346      16.607      22.596      28.280      32.835      35.756    
  40.292      38.043      33.876      28.264      21.833      15.499      10.323      6.9618      5.2024      4.4317    
  4.4322      5.2032      6.9610      10.319      15.494      21.834      28.280      33.906      38.073      40.305    
  41.552      38.031      32.804      26.454      19.690      13.510      8.9053      6.2229      4.9282      4.5341    
  4.9283      6.2220      8.9014      13.503      19.687      26.465      32.835      38.073      41.582      42.820    
  40.276      35.729      29.809      23.145      16.555      11.071      7.4350      5.5373      4.7171      4.7169    
  5.5364      7.4321      11.065      16.548      23.144      29.822      35.756      40.305      42.820      42.807    
  27.955      23.102      17.689      12.615      8.6997      6.2562      4.9216      4.3271      4.3279      4.9248    
  6.2609      8.7001      12.604      17.669      23.084      27.949      31.566      33.483      33.480      31.561    
  23.102      18.271      13.463      9.4872      6.7993      5.2410      4.4183      4.1707      4.4191      5.2455    
  6.8060      9.4875      13.450      18.251      23.088      27.148      29.822      30.749      29.817      27.149    
  17.689      13.463      9.7701      7.1083      5.4673      4.5102      4.0872      4.0861      4.5108      5.4740    
  7.1164      9.7685      13.448      17.671      21.692      24.792      26.465      26.462      24.790      21.700    
  12.615      9.4872      7.1083      5.5487      4.5669      4.0503      3.8933      4.0484      4.5695      5.5577    
  7.1152      9.4817      12.597      15.998      19.030      21.102      21.834      21.104      19.041      16.017    
  8.6997      6.7993      5.4673      4.5669      4.0401      3.8057      3.8042      4.0391      4.5716      5.4768    
  6.8054      8.6945      11.055      13.490      15.484      16.601      16.607      15.499      13.510      11.071    
  6.2562      5.2410      4.5102      4.0503      3.8057      3.7287      3.8038      4.0497      4.5145      5.2503    
  6.2654      7.5888      9.1391      10.629      11.708      12.105      11.720      10.645      9.1486      7.5872    
  4.9216      4.4183      4.0872      3.8933      3.8042      3.8038      3.8916      4.0850      4.4193      4.9288    
  5.6081      6.4050      7.2542      7.9932      8.4287      8.4328      8.0007      7.2559      6.3976      5.5969    
  4.3271      4.1707      4.0861      4.0484      4.0391      4.0497      4.0850      4.1658      4.3222      4.5780    
  4.9281      5.3279      5.7041      5.9818      6.0857      5.9810      5.7000      5.3205      4.9218      4.5775    
  4.3279      4.4191      4.5108      4.5695      4.5716      4.5145      4.4193      4.3222      4.2604      4.2582    
  4.3194      4.4236      4.5311      4.5982      4.5962      4.5264      4.4196      4.3200      4.2643      4.2689    
  4.9248      5.2455      5.4740      5.5577      5.4768      5.2503      4.9288      4.5780      4.2582      4.0093    
  3.8442      3.7524      3.7108      3.6985      3.7090      3.7525      3.8489      4.0167      4.2635      4.5781    
  6.2609      6.8060      7.1164      7.1152      6.8054      6.2654      5.6081      4.9281      4.3194      3.8442    
  3.5159      3.3165      3.2228      3.2226      3.3176      3.5201      3.8490      4.3193      4.9213      5.5993    
  8.7001      9.4875      9.7685      9.4817      8.6945      7.5888      6.4050      5.3279      4.4236      3.7524    
  3.3165      3.0782      3.0031      3.0789      3.3177      3.7525      4.4202      5.3210      6.3986      7.5883    
  12.604      13.450      13.448      12.597      11.055      9.1391      7.2542      5.7041      4.5311      3.7108    
  3.2228      3.0031      3.0040      3.2238      3.7089      4.5264      5.7002      7.2552      9.1456      11.064    
  17.669      18.251      17.671      15.998      13.490      10.629      7.9932      5.9818      4.5982      3.6985    
  3.2226      3.0789      3.2238      3.6982      4.5957      5.9810      7.9979      10.638      13.497      15.999    
  23.084      23.088      21.692      19.030      15.484      11.708      8.4287      6.0857      4.5962      3.7090    
  3.3176      3.3177      3.7089      4.5957      6.0867      8.4328      11.713      15.486      19.026      21.684    
  27.949      27.148      24.792      21.102      16.601      12.105      8.4328      5.9810      4.5264      3.7525    
  3.5201      3.7525      4.5264      5.9810      8.4328      12.105      16.601      21.102      24.792      27.148    
  31.566      29.822      26.465      21.834      16.607      11.720      8.0007      5.7000      4.4196      3.8489    
  3.8490      4.4202      5.7002      7.9979      11.713      16.601      21.840      26.485      29.846      31.577    
  33.483      30.749      26.462      21.104      15.499      10.645      7.2559      5.3205      4.3200      4.0167    
  4.3193      5.3210      7.2552      10.638      15.486      21.102      26.485      30.793      33.519      34.433    
  33.480      29.817      24.790      19.041      13.510      9.1486      6.3976      4.9218      4.2643      4.2635    
  4.9213      6.3986      9.1456      13.497      19.026      24.792      29.846      33.519      35.431      35.412    
  31.561      27.149      21.700      16.017      11.071      7.5872      5.5969      4.5775      4.2689      4.5781    
  5.5993      7.5883      11.064      15.999      21.684      27.148      31.577      34.433      35.412      34.417    
  19.639      15.508      11.491      8.2912      6.1870      4.9216      4.2452      4.0397      4.2447      4.9265    
  6.1997      8.3036      11.491      15.489      19.609      23.084      25.358      26.148      25.375      23.113    
  15.508      11.872      8.7758      6.5984      5.2308      4.4183      4.0564      4.0546      4.4176      5.2388    
  6.6149      8.7899      11.871      15.490      18.981      21.684      23.144      23.152      21.706      19.008    
  11.491      8.7758      6.7471      5.4032      4.5431      4.0872      3.9463      4.0837      4.5432      5.4129    