FCC Au                                  
   3.80000000000000     
     0.000000    0.500000    0.500000
     0.500000    0.000000    0.500000
     0.500000    0.500000    0.000000
   Au
     1
Direct
  0.000000  0.000000  0.000000
 
   20   20   20
 0.65748670931E+02 0.62757558347E+02 0.55197900721E+02 0.45910457854E+02 0.36740774446E+02
 0.27955225853E+02 0.19638906132E+02 0.12723100152E+02 0.82680123873E+01 0.62245734100E+01
 0.56462981348E+01 0.62245734100E+01 0.82680123873E+01 0.12723100152E+02 0.19638906132E+02
 0.27955225853E+02 0.36740774446E+02 0.45910457854E+02 0.55197900721E+02 0.62757558347E+02
 0.62757558347E+02 0.57535507927E+02 0.49264086911E+02 0.40294445004E+02 0.31552554882E+02
 0.23101826569E+02 0.15507859690E+02 0.99160723405E+01 0.68734651908E+01 0.56945824546E+01
 0.56966867105E+01 0.68761905030E+01 0.99160209499E+01 0.15510513600E+02 0.23113026369E+02
 0.31561451779E+02 0.40276140274E+02 0.49208270098E+02 0.57468961530E+02 0.62727500580E+02
 0.55197900721E+02 0.49264086911E+02 0.41582761237E+02 0.33474844806E+02 0.25357337480E+02
 0.17689342418E+02 0.11490935568E+02 0.76147646441E+01 0.58330321383E+01 0.53120435224E+01
 0.58348894138E+01 0.76143000675E+01 0.11490451121E+02 0.17698085952E+02 0.25374748515E+02
 0.33479789364E+02 0.41551563490E+02 0.49202543259E+02 0.55146826164E+02 0.57468961530E+02
 0.45910457854E+02 0.40294445004E+02 0.33474844806E+02 0.26136320574E+02 0.18871029809E+02
 0.12614747096E+02 0.82911772444E+01 0.60202092181E+01 0.50778032789E+01 0.50782510265E+01
 0.60195380533E+01 0.82874996478E+01 0.12611905070E+02 0.18875432542E+02 0.26147564614E+02
 0.33483405609E+02 0.40291846184E+02 0.45900129358E+02 0.49202543259E+02 0.49208270098E+02
 0.36740774446E+02 0.31552554882E+02 0.25357337480E+02 0.18871029809E+02 0.13021443771E+02
 0.86997117017E+01 0.61870397193E+01 0.49620545976E+01 0.45908665714E+01 0.49635027562E+01
 0.61868915584E+01 0.86946054294E+01 0.13011602663E+02 0.18862162414E+02 0.25357666008E+02
 0.31565947484E+02 0.36761651754E+02 0.40291846184E+02 0.41551563490E+02 0.40276140274E+02
 0.27955225853E+02 0.23101826569E+02 0.17689342418E+02 0.12614747096E+02 0.86997117017E+01
 0.62561908275E+01 0.49215913982E+01 0.43271251164E+01 0.43279224648E+01 0.49247695287E+01
 0.62609382255E+01 0.87000598212E+01 0.12604038935E+02 0.17669328368E+02 0.23083873947E+02
 0.27949477077E+02 0.31565947484E+02 0.33483405609E+02 0.33479789364E+02 0.31561451779E+02
 0.19638906132E+02 0.15507859690E+02 0.11490935568E+02 0.82911772444E+01 0.61870397193E+01
 0.49215913982E+01 0.42452070361E+01 0.40396657420E+01 0.42447366567E+01 0.49265318663E+01
 0.61996569883E+01 0.83036145766E+01 0.11490645220E+02 0.15489257089E+02 0.19608513637E+02
 0.23083873947E+02 0.25357666008E+02 0.26147564614E+02 0.25374748515E+02 0.23113026369E+02
 0.12723100152E+02 0.99160723405E+01 0.76147646441E+01 0.60202092181E+01 0.49620545976E+01
 0.43271251164E+01 0.40396657420E+01 0.40372136912E+01 0.43226369393E+01 0.49626913476E+01
 0.60323955116E+01 0.76368569027E+01 0.99354518974E+01 0.12724131812E+02 0.15489257089E+02
 0.17669328368E+02 0.18862162414E+02 0.18875432542E+02 0.17698085952E+02 0.15510513600E+02
 0.82680123873E+01 0.68734651908E+01 0.58330321383E+01 0.50778032789E+01 0.45908665714E+01
 0.43279224648E+01 0.42447366567E+01 0.43226369393E+01 0.45791164546E+01 0.50653649296E+01
 0.58332009307E+01 0.68936079936E+01 0.82978400290E+01 0.99354518974E+01 0.11490645220E+02
 0.12604038935E+02 0.13011602663E+02 0.12611905070E+02 0.11490451121E+02 0.99160209499E+01
 0.62245734100E+01 0.56945824546E+01 0.53120435224E+01 0.50782510265E+01 0.49635027562E+01
 0.49247695287E+01 0.49265318663E+01 0.49626913476E+01 0.50653649296E+01 0.52890394816E+01
 0.56763129799E+01 0.62245168178E+01 0.68936079936E+01 0.76368569027E+01 0.83036145766E+01
 0.87000598212E+01 0.86946054294E+01 0.82874996478E+01 0.76143000675E+01 0.68761905030E+01
 0.56462981348E+01 0.56966867105E+01 0.58348894138E+01 0.60195380533E+01 0.61868915584E+01
 0.62609382255E+01 0.61996569883E+01 0.60323955116E+01 0.58332009307E+01 0.56763129799E+01
 0.56175023986E+01 0.56763129799E+01 0.58332009307E+01 0.60323955116E+01 0.61996569883E+01
 0.62609382255E+01 0.61868915584E+01 0.60195380533E+01 0.58348894138E+01 0.56966867105E+01
 0.62245734100E+01 0.68761905030E+01 0.76143000675E+01 0.82874996478E+01 0.86946054294E+01
 0.87000598212E+01 0.83036145766E+01 0.76368569027E+01 0.68936079936E+01 0.62245168178E+01
 0.56763129799E+01 0.52890394816E+01 0.50653649296E+01 0.49626913476E+01 0.49265318663E+01
 0.49247695287E+01 0.49635027562E+01 0.50782510265E+01 0.53120435224E+01 0.56945824546E+01
 0.82680123873E+01 0.99160209499E+01 0.11490451121E+02 0.12611905070E+02 0.13011602663E+02
 0.12604038935E+02 0.11490645220E+02 0.99354518974E+01 0.82978400290E+01 0.68936079936E+01
 0.58332009307E+01 0.50653649296E+01 0.45791164546E+01 0.43226369393E+01 0.42447366567E+01
 0.43279224648E+01 0.45908665714E+01 0.50778032789E+01 0.58330321383E+01 0.68734651908E+01
 0.12723100152E+02 0.15510513600E+02 0.17698085952E+02 0.18875432542E+02 0.18862162414E+02
 0.17669328368E+02 0.15489257089E+02 0.12724131812E+02 0.99354518974E+01 0.76368569027E+01
 0.60323955116E+01 0.49626913476E+01 0.43226369393E+01 0.40372136912E+01 0.40396657420E+01
 0.43271251164E+01 0.49620545976E+01 0.60202092181E+01 0.76147646441E+01 0.99160723405E+01
 0.19638906132E+02 0.23113026369E+02 0.25374748515E+02 0.26147564614E+02 0.25357666008E+02
 0.23083873947E+02 0.19608513637E+02 0.15489257089E+02 0.11490645220E+02 0.83036145766E+01
 0.61996569883E+01 0.49265318663E+01 0.42447366567E+01 0.40396657420E+01 0.42452070361E+01
 0.49215913982E+01 0.61870397193E+01 0.82911772444E+01 0.11490935568E+02 0.15507859690E+02
 0.27955225853E+02 0.31561451779E+02 0.33479789364E+02 0.33483405609E+02 0.31565947484E+02
 0.27949477077E+02 0.23083873947E+02 0.17669328368E+02 0.12604038935E+02 0.87000598212E+01
 0.62609382255E+01 0.49247695287E+01 0.43279224648E+01 0.43271251164E+01 0.49215913982E+01
 0.62561908275E+01 0.86997117017E+01 0.12614747096E+02 0.17689342418E+02 0.23101826569E+02
 0.36740774446E+02 0.40276140274E+02 0.41551563490E+02 0.40291846184E+02 0.36761651754E+02
 0.31565947484E+02 0.25357666008E+02 0.18862162414E+02 0.13011602663E+02 0.86946054294E+01
 0.61868915584E+01 0.49635027562E+01 0.45908665714E+01 0.49620545976E+01 0.61870397193E+01
 0.86997117017E+01 0.13021443771E+02 0.18871029809E+02 0.25357337480E+02 0.31552554882E+02
 0.45910457854E+02 0.49208270098E+02 0.49202543259E+02 0.45900129358E+02 0.40291846184E+02
 0.33483405609E+02 0.26147564614E+02 0.18875432542E+02 0.12611905070E+02 0.82874996478E+01
 0.60195380533E+01 0.50782510265E+01 0.50778032789E+01 0.60202092181E+01 0.82911772444E+01
 0.12614747096E+02 0.18871029809E+02 0.26136320574E+02 0.33474844806E+02 0.40294445004E+02
 0.55197900721E+02 0.57468961530E+02 0.55146826164E+02 0.49202543259E+02 0.41551563490E+02
 0.33479789364E+02 0.25374748515E+02 0.17698085952E+02 0.11490451121E+02 0.76143000675E+01
 0.58348894138E+01 0.53120435224E+01 0.58330321383E+01 0.76147646441E+01 0.11490935568E+02
 0.17689342418E+02 0.25357337480E+02 0.33474844806E+02 0.41582761237E+02 0.49264086911E+02
 0.62757558347E+02 0.62727500580E+02 0.57468961530E+02 0.49208270098E+02 0.40276140274E+02
 0.31561451779E+02 0.23113026369E+02 0.15510513600E+02 0.99160209499E+01 0.68761905030E+01
 0.56966867105E+01 0.56945824546E+01 0.68734651908E+01 0.99160723405E+01 0.15507859690E+02
 0.23101826569E+02 0.31552554882E+02 0.40294445004E+02 0.49264086911E+02 0.57535507927E+02
 0.62757558347E+02 0.57535507927E+02 0.49264086911E+02 0.40294445004E+02 0.31552554882E+02
 0.23101826569E+02 0.15507859690E+02 0.99160723405E+01 0.68734651908E+01 0.56945824546E+01
 0.56966867105E+01 0.68761905030E+01 0.99160209499E+01 0.15510513600E+02 0.23113026369E+02
 0.31561451779E+02 0.40276140274E+02 0.49208270098E+02 0.57468961530E+02 0.62727500580E+02
 0.57535507927E+02 0.51071919016E+02 0.42860604178E+02 0.34414612605E+02 0.26109818572E+02
 0.18271197505E+02 0.11871585883E+02 0.78240938215E+01 0.59643719206E+01 0.54261763845E+01
 0.59666221427E+01 0.78235125953E+01 0.11872065787E+02 0.18285082716E+02 0.26134058503E+02
 0.34416971560E+02 0.42807361160E+02 0.50974262197E+02 0.57456085798E+02 0.60022614402E+02
 0.49264086911E+02 0.42860604178E+02 0.35413039615E+02 0.27682309916E+02 0.20094148967E+02
 0.13462658788E+02 0.87757653676E+01 0.62873388420E+01 0.52781752233E+01 0.52789555490E+01
 0.62865364802E+01 0.87719570602E+01 0.13465185337E+02 0.20112508711E+02 0.27705752489E+02
 0.35412317700E+02 0.42819669578E+02 0.49206461411E+02 0.53100860268E+02 0.53128108083E+02
 0.40294445004E+02 0.34414612605E+02 0.27682309916E+02 0.20726148883E+02 0.14347643589E+02
 0.94871818287E+01 0.65983623925E+01 0.52272451129E+01 0.48139813995E+01 0.52292454518E+01
 0.65965566488E+01 0.94799576137E+01 0.14342926862E+02 0.20733362438E+02 0.27700737774E+02
 0.34433477938E+02 0.40304688093E+02 0.44496443588E+02 0.46046369221E+02 0.44494017018E+02
 0.31552554882E+02 0.26109818572E+02 0.20094148967E+02 0.14347643589E+02 0.97525770011E+01
 0.67992983771E+01 0.52308046569E+01 0.45397913308E+01 0.45415812873E+01 0.52337533604E+01
 0.67980159531E+01 0.97435784386E+01 0.14334262703E+02 0.20086658227E+02 0.26118278301E+02
 0.31576927473E+02 0.35756007789E+02 0.38043201646E+02 0.38031446164E+02 0.35729006693E+02
 0.23101826569E+02 0.18271197505E+02 0.13462658788E+02 0.94871818287E+01 0.67992983771E+01
 0.52409698955E+01 0.44183473395E+01 0.41706879614E+01 0.44191177826E+01 0.52455153040E+01
 0.68060232312E+01 0.94875211064E+01 0.13450219520E+02 0.18251371979E+02 0.23087833435E+02
 0.27148033674E+02 0.29821611739E+02 0.30749160546E+02 0.29817187399E+02 0.27149485486E+02
 0.15507859690E+02 0.11871585883E+02 0.87757653676E+01 0.65983623925E+01 0.52308046569E+01
 0.44183473395E+01 0.40563704345E+01 0.40545786455E+01 0.44176069643E+01 0.52388236321E+01
 0.66148611279E+01 0.87899242780E+01 0.11871196574E+02 0.15490160185E+02 0.18981338072E+02
 0.21683670832E+02 0.23143737471E+02 0.23152298495E+02 0.21706022785E+02 0.19007811462E+02
 0.99160723405E+01 0.78240938215E+01 0.62873388420E+01 0.52272451129E+01 0.45397913308E+01
 0.41706879614E+01 0.40545786455E+01 0.41658318967E+01 0.45340348134E+01 0.52282225813E+01
 0.63014439313E+01 0.78482490288E+01 0.99360791118E+01 0.12304487675E+02 0.14480877403E+02
 0.15999108226E+02 0.16548069189E+02 0.16015747435E+02 0.14496857034E+02 0.12302803498E+02
 0.68734651908E+01 0.59643719206E+01 0.52781752233E+01 0.48139813995E+01 0.45415812873E+01
 0.44191177826E+01 0.44176069643E+01 0.45340348134E+01 0.47984337014E+01 0.52635063218E+01
 0.59653962302E+01 0.68943783394E+01 0.80608860613E+01 0.93306150350E+01 0.10426374539E+02
 0.11063613527E+02 0.11064945521E+02 0.10423597838E+02 0.93136925723E+01 0.80333403137E+01
 0.56945824546E+01 0.54261763845E+01 0.52789555490E+01 0.52292454518E+01 0.52337533604E+01
 0.52455153040E+01 0.52388236321E+01 0.52282225813E+01 0.52635063218E+01 0.54020286713E+01
 0.56770587829E+01 0.60782499195E+01 0.65574851429E+01 0.70546856390E+01 0.74436182825E+01
 0.75882792978E+01 0.74321457447E+01 0.70366431491E+01 0.65431074604E+01 0.60785828141E+01
 0.56966867105E+01 0.59666221427E+01 0.62865364802E+01 0.65965566488E+01 0.67980159531E+01
 0.68060232312E+01 0.66148611279E+01 0.63014439313E+01 0.59653962302E+01 0.56770587829E+01
 0.54912451983E+01 0.54274129768E+01 0.54641662948E+01 0.55456475595E+01 0.56047986881E+01
 0.55993046153E+01 0.55363806540E+01 0.54653457326E+01 0.54456304485E+01 0.55183021645E+01
 0.68761905030E+01 0.78235125953E+01 0.87719570602E+01 0.94799576137E+01 0.97435784386E+01
 0.94875211064E+01 0.87899242780E+01 0.78482490288E+01 0.68943783394E+01 0.60782499195E+01
 0.54274129768E+01 0.49751580256E+01 0.47083061986E+01 0.45773613237E+01 0.45382234154E+01
 0.45780511522E+01 0.47169207934E+01 0.49933536895E+01 0.54439337783E+01 0.60785828141E+01
 0.99160209499E+01 0.11872065787E+02 0.13465185337E+02 0.14342926862E+02 0.14334262703E+02
 0.13450219520E+02 0.11871196574E+02 0.99360791118E+01 0.80608860613E+01 0.65574851429E+01
 0.54641662948E+01 0.47083061986E+01 0.42612356511E+01 0.40603655284E+01 0.40630238031E+01
 0.42689414570E+01 0.47171287415E+01 0.54642369011E+01 0.65408607076E+01 0.80333403137E+01
 0.15510513600E+02 0.18285082716E+02 0.20112508711E+02 0.20733362438E+02 0.20086658227E+02
 0.18251371979E+02 0.15490160185E+02 0.12304487675E+02 0.93306150350E+01 0.70546856390E+01
 0.55456475595E+01 0.45773613237E+01 0.40603655284E+01 0.39039185648E+01 0.40630208325E+01
 0.45774883107E+01 0.55372957847E+01 0.70376999589E+01 0.93142299571E+01 0.12302803498E+02
 0.23113026369E+02 0.26134058503E+02 0.27705752489E+02 0.27700737774E+02 0.26118278301E+02
 0.23087833435E+02 0.18981338072E+02 0.14480877403E+02 0.10426374539E+02 0.74436182825E+01
 0.56047986881E+01 0.45382234154E+01 0.40630238031E+01 0.40630208325E+01 0.45356729439E+01
 0.55969452652E+01 0.74349522161E+01 0.10427177303E+02 0.14497086253E+02 0.19007811462E+02
 0.31561451779E+02 0.34416971560E+02 0.35412317700E+02 0.34433477938E+02 0.31576927473E+02
 0.27148033674E+02 0.21683670832E+02 0.15999108226E+02 0.11063613527E+02 0.75882792978E+01
 0.55993046153E+01 0.45780511522E+01 0.42689414570E+01 0.45774883107E+01 0.55969452652E+01
 0.75871730733E+01 0.11070944661E+02 0.16016521976E+02 0.21700420110E+02 0.27149485486E+02
 0.40276140274E+02 0.42807361160E+02 0.42819669578E+02 0.40304688093E+02 0.35756007789E+02
 0.29821611739E+02 0.23143737471E+02 0.16548069189E+02 0.11064945521E+02 0.74321457447E+01
 0.55363806540E+01 0.47169207934E+01 0.47171287415E+01 0.55372957847E+01 0.74349522161E+01
 0.11070944661E+02 0.16555387994E+02 0.23145150552E+02 0.29808844171E+02 0.35729006693E+02
 0.49208270098E+02 0.50974262197E+02 0.49206461411E+02 0.44496443588E+02 0.38043201646E+02
 0.30749160546E+02 0.23152298495E+02 0.16015747435E+02 0.10423597838E+02 0.70366431491E+01
 0.54653457326E+01 0.49933536895E+01 0.54642369011E+01 0.70376999589E+01 0.10427177303E+02
 0.16016521976E+02 0.23145150552E+02 0.30736444557E+02 0.38033157000E+02 0.44494017018E+02
 0.57468961530E+02 0.57456085798E+02 0.53100860268E+02 0.46046369221E+02 0.38031446164E+02
 0.29817187399E+02 0.21706022785E+02 0.14496857034E+02 0.93136925723E+01 0.65431074604E+01
 0.54456304485E+01 0.54439337783E+01 0.65408607076E+01 0.93142299571E+01 0.14497086253E+02
 0.21700420110E+02 0.29808844171E+02 0.38033157000E+02 0.46066050941E+02 0.53128108083E+02
 0.62727500580E+02 0.60022614402E+02 0.53128108083E+02 0.44494017018E+02 0.35729006693E+02
 0.27149485486E+02 0.19007811462E+02 0.12302803498E+02 0.80333403137E+01 0.60785828141E+01
 0.55183021645E+01 0.60785828141E+01 0.80333403137E+01 0.12302803498E+02 0.19007811462E+02
 0.27149485486E+02 0.35729006693E+02 0.44494017018E+02 0.53128108083E+02 0.60022614402E+02
 0.55197900721E+02 0.49264086911E+02 0.41582761237E+02 0.33474844806E+02 0.25357337480E+02
 0.17689342418E+02 0.11490935568E+02 0.76147646441E+01 0.58330321383E+01 0.53120435224E+01
 0.58348894138E+01 0.76143000675E+01 0.11490451121E+02 0.17698085952E+02 0.25374748515E+02
 0.33479789364E+02 0.41551563490E+02 0.49202543259E+02 0.55146826164E+02 0.57468961530E+02
 0.49264086911E+02 0.42860604178E+02 0.35413039615E+02 0.27682309916E+02 0.20094148967E+02
 0.13462658788E+02 0.87757653676E+01 0.62873388420E+01 0.52781752233E+01 0.52789555490E+01
 0.62865364802E+01 0.87719570602E+01 0.13465185337E+02 0.20112508711E+02 0.27705752489E+02
 0.35412317700E+02 0.42819669578E+02 0.49206461411E+02 0.53100860268E+02 0.53128108083E+02
 0.41582761237E+02 0.35413039615E+02 0.28473321905E+02 0.21360001516E+02 0.14811575820E+02
 0.97700795190E+01 0.67471033858E+01 0.53221664244E+01 0.48937943318E+01 0.53239342694E+01
 0.67443414764E+01 0.97629769041E+01 0.14811779139E+02 0.21377215589E+02 0.28500268605E+02
 0.35430780914E+02 0.41582065243E+02 0.46057706593E+02 0.47735152976E+02 0.46066050941E+02
 0.33474844806E+02 0.27682309916E+02 0.21360001516E+02 0.15287091397E+02 0.10343606898E+02
 0.71082580341E+01 0.54031842314E+01 0.46592805053E+01 0.46611636378E+01 0.54051320596E+01
 0.71036824186E+01 0.10331911761E+02 0.15277632039E+02 0.21366411427E+02 0.27711397973E+02
 0.33519153799E+02 0.38073418592E+02 0.40622150734E+02 0.40605924522E+02 0.38033157000E+02
 0.25357337480E+02 0.20094148967E+02 0.14811575820E+02 0.10343606898E+02 0.72472301958E+01
 0.54672722505E+01 0.45430832436E+01 0.42659212178E+01 0.45444704059E+01 0.54692789776E+01
 0.72453047729E+01 0.10332235675E+02 0.14794084216E+02 0.20086313258E+02 0.25374295446E+02
 0.29846004411E+02 0.32835193976E+02 0.33876044846E+02 0.32803945685E+02 0.29808844171E+02
 0.17689342418E+02 0.13462658788E+02 0.97700795190E+01 0.71082580341E+01 0.54672722505E+01
 0.45102022106E+01 0.40871862956E+01 0.40861248576E+01 0.45107740321E+01 0.54739854678E+01
 0.71163873543E+01 0.97684957526E+01 0.13447647393E+02 0.17670970133E+02 0.21691680307E+02
 0.24792278842E+02 0.26464702007E+02 0.26461886308E+02 0.24790208926E+02 0.21700420110E+02
 0.11490935568E+02 0.87757653676E+01 0.67471033858E+01 0.54031842314E+01 0.45430832436E+01
 0.40871862956E+01 0.39463226442E+01 0.40837385459E+01 0.45432249926E+01 0.54128722573E+01
 0.67636388928E+01 0.87886839844E+01 0.11490445133E+02 0.14482055493E+02 0.17174989642E+02
 0.19025736884E+02 0.19686761240E+02 0.19040551041E+02 0.17196068895E+02 0.14497086253E+02
 0.76147646441E+01 0.62873388420E+01 0.53221664244E+01 0.46592805053E+01 0.42659212178E+01
 0.40861248576E+01 0.40837385459E+01 0.42592813057E+01 0.46520741168E+01 0.53224623973E+01
 0.63012753377E+01 0.76376741817E+01 0.93317452567E+01 0.11128690055E+02 0.12636404475E+02
 0.13497067904E+02 0.13503025977E+02 0.12646122979E+02 0.11127156989E+02 0.93142299571E+01
 0.58330321383E+01 0.52781752233E+01 0.48937943318E+01 0.46611636378E+01 0.45444704059E+01
 0.45107740321E+01 0.45432249926E+01 0.46520741168E+01 0.48760614482E+01 0.52633038752E+01
 0.58345000825E+01 0.65591011680E+01 0.74082406575E+01 0.82614065875E+01 0.89053902547E+01
 0.91456162976E+01 0.89014119079E+01 0.82480998629E+01 0.73863415337E+01 0.65408607076E+01
 0.53120435224E+01 0.52789555490E+01 0.53239342694E+01 0.54051320596E+01 0.54692789776E+01
 0.54739854678E+01 0.54128722573E+01 0.53224623973E+01 0.52633038752E+01 0.52899759159E+01
 0.54288128329E+01 0.56685585501E+01 0.59603285272E+01 0.62344171605E+01 0.64039370929E+01
 0.63986441440E+01 0.62219614930E+01 0.59496115557E+01 0.56692037305E+01 0.54439337783E+01
 0.58348894138E+01 0.62865364802E+01 0.67443414764E+01 0.71036824186E+01 0.72453047729E+01
 0.71163873543E+01 0.67636388928E+01 0.63012753377E+01 0.58345000825E+01 0.54288128329E+01
 0.51396358988E+01 0.49818995314E+01 0.49284221766E+01 0.49267031334E+01 0.49291367639E+01
 0.49213237138E+01 0.49282938841E+01 0.49953731054E+01 0.51619831257E+01 0.54456304485E+01
 0.76143000675E+01 0.87719570602E+01 0.97629769041E+01 0.10331911761E+02 0.10332235675E+02
 0.97684957526E+01 0.87886839844E+01 0.76376741817E+01 0.65591011680E+01 0.56685585501E+01
 0.49818995314E+01 0.45226861145E+01 0.42590516171E+01 0.41418819541E+01 0.41423281216E+01
 0.42634832703E+01 0.45341274939E+01 0.49941521878E+01 0.56692037305E+01 0.65431074604E+01
 0.11490451121E+02 0.13465185337E+02 0.14811779139E+02 0.15277632039E+02 0.14794084216E+02
 0.13447647393E+02 0.11490445133E+02 0.93317452567E+01 0.74082406575E+01 0.59603285272E+01
 0.49284221766E+01 0.42590516171E+01 0.39015982475E+01 0.37925073482E+01 0.39057111720E+01
 0.42643451481E+01 0.49282128221E+01 0.59481572884E+01 0.73863415337E+01 0.93136925723E+01
 0.17698085952E+02 0.20112508711E+02 0.21377215589E+02 0.21366411427E+02 0.20086313258E+02
 0.17670970133E+02 0.14482055493E+02 0.11128690055E+02 0.82614065875E+01 0.62344171605E+01
 0.49267031334E+01 0.41418819541E+01 0.37925073482E+01 0.37936637241E+01 0.41425728808E+01
 0.49218010344E+01 0.62229171484E+01 0.82497331455E+01 0.11127156989E+02 0.14496857034E+02
 0.25374748515E+02 0.27705752489E+02 0.28500268605E+02 0.27711397973E+02 0.25374295446E+02
 0.21691680307E+02 0.17174989642E+02 0.12636404475E+02 0.89053902547E+01 0.64039370929E+01
 0.49291367639E+01 0.41423281216E+01 0.39057111720E+01 0.41425728808E+01 0.49255967451E+01
 0.63975702685E+01 0.89053123469E+01 0.12649779954E+02 0.17196068895E+02 0.21706022785E+02
 0.33479789364E+02 0.35412317700E+02 0.35430780914E+02 0.33519153799E+02 0.29846004411E+02
 0.24792278842E+02 0.19025736884E+02 0.13497067904E+02 0.91456162976E+01 0.63986441440E+01
 0.49213237138E+01 0.42634832703E+01 0.42643451481E+01 0.49218010344E+01 0.63975702685E+01
 0.91485939646E+01 0.13509671481E+02 0.19040519352E+02 0.24790208926E+02 0.29817187399E+02
 0.41551563490E+02 0.42819669578E+02 0.41582065243E+02 0.38073418592E+02 0.32835193976E+02
 0.26464702007E+02 0.19686761240E+02 0.13503025977E+02 0.89014119079E+01 0.62219614930E+01
 0.49282938841E+01 0.45341274939E+01 0.49282128221E+01 0.62229171484E+01 0.89053123469E+01
 0.13509671481E+02 0.19689907570E+02 0.26453514078E+02 0.32803945685E+02 0.38031446164E+02
 0.49202543259E+02 0.49206461411E+02 0.46057706593E+02 0.40622150734E+02 0.33876044846E+02
 0.26461886308E+02 0.19040551041E+02 0.12646122979E+02 0.82480998629E+01 0.59496115557E+01
 0.49953731054E+01 0.49941521878E+01 0.59481572884E+01 0.82497331455E+01 0.12649779954E+02
 0.19040519352E+02 0.26453514078E+02 0.33860687655E+02 0.40605924522E+02 0.46046369221E+02
 0.55146826164E+02 0.53100860268E+02 0.47735152976E+02 0.40605924522E+02 0.32803945685E+02
 0.24790208926E+02 0.17196068895E+02 0.11127156989E+02 0.73863415337E+01 0.56692037305E+01
 0.51619831257E+01 0.56692037305E+01 0.73863415337E+01 0.11127156989E+02 0.17196068895E+02
 0.24790208926E+02 0.32803945685E+02 0.40605924522E+02 0.47735152976E+02 0.53100860268E+02
 0.57468961530E+02 0.53128108083E+02 0.46066050941E+02 0.38033157000E+02 0.29808844171E+02
 0.21700420110E+02 0.14497086253E+02 0.93142299571E+01 0.65408607076E+01 0.54439337783E+01
 0.54456304485E+01 0.65431074604E+01 0.93136925723E+01 0.14496857034E+02 0.21706022785E+02
 0.29817187399E+02 0.38031446164E+02 0.46046369221E+02 0.53100860268E+02 0.57456085798E+02
 0.45910457854E+02 0.40294445004E+02 0.33474844806E+02 0.26136320574E+02 0.18871029809E+02
 0.12614747096E+02 0.82911772444E+01 0.60202092181E+01 0.50778032789E+01 0.50782510265E+01
 0.60195380533E+01 0.82874996478E+01 0.12611905070E+02 0.18875432542E+02 0.26147564614E+02
 0.33483405609E+02 0.40291846184E+02 0.45900129358E+02 0.49202543259E+02 0.49208270098E+02
 0.40294445004E+02 0.34414612605E+02 0.27682309916E+02 0.20726148883E+02 0.14347643589E+02
 0.94871818287E+01 0.65983623925E+01 0.52272451129E+01 0.48139813995E+01 0.52292454518E+01
 0.65965566488E+01 0.94799576137E+01 0.14342926862E+02 0.20733362438E+02 0.27700737774E+02
 0.34433477938E+02 0.40304688093E+02 0.44496443588E+02 0.46046369221E+02 0.44494017018E+02
 0.33474844806E+02 0.27682309916E+02 0.21360001516E+02 0.15287091397E+02 0.10343606898E+02
 0.71082580341E+01 0.54031842314E+01 0.46592805053E+01 0.46611636378E+01 0.54051320596E+01
 0.71036824186E+01 0.10331911761E+02 0.15277632039E+02 0.21366411427E+02 0.27711397973E+02
 0.33519153799E+02 0.38073418592E+02 0.40622150734E+02 0.40605924522E+02 0.38033157000E+02
 0.26136320574E+02 0.20726148883E+02 0.15287091397E+02 0.10652037031E+02 0.74108191932E+01
 0.55487205850E+01 0.45889709494E+01 0.43010755682E+01 0.45900515303E+01 0.55496060124E+01
 0.74062840444E+01 0.10637069648E+02 0.15268167620E+02 0.20723860338E+02 0.26167975664E+02
 0.30792896143E+02 0.33905797970E+02 0.34990914795E+02 0.33860687655E+02 0.30736444557E+02
 0.18871029809E+02 0.14347643589E+02 0.10343606898E+02 0.74108191932E+01 0.56048272940E+01
 0.45668519914E+01 0.41097940742E+01 0.41091736134E+01 0.45678642042E+01 0.56090737126E+01
 0.74101299838E+01 0.10327940976E+02 0.14322538618E+02 0.18858692700E+02 0.23161127079E+02
 0.26485153905E+02 0.28279627930E+02 0.28263559736E+02 0.26453514078E+02 0.23145150552E+02
 0.12614747096E+02 0.94871818287E+01 0.71082580341E+01 0.55487205850E+01 0.45668519914E+01
 0.40502893125E+01 0.38933339399E+01 0.40484282669E+01 0.45694892070E+01 0.55577477406E+01
 0.71151954683E+01 0.94816712210E+01 0.12597084395E+02 0.15997829624E+02 0.19030374136E+02
 0.21102062645E+02 0.21834309371E+02 0.21104355129E+02 0.19040519352E+02 0.16016521976E+02
 0.82911772444E+01 0.65983623925E+01 0.54031842314E+01 0.45889709494E+01 0.41097940742E+01
 0.38933339399E+01 0.38908493440E+01 0.41056315201E+01 0.45899101441E+01 0.54128661720E+01
 0.66128984450E+01 0.83010917440E+01 0.10424602291E+02 0.12635253580E+02 0.14458344395E+02
 0.15486216742E+02 0.15493638032E+02 0.14475273812E+02 0.12649779954E+02 0.10427177303E+02
 0.60202092181E+01 0.52272451129E+01 0.46592805053E+01 0.43010755682E+01 0.41091736134E+01
 0.40484282669E+01 0.41056315201E+01 0.42935746762E+01 0.46515425986E+01 0.52272523261E+01
 0.60322755252E+01 0.70556683460E+01 0.82616650733E+01 0.94438358703E+01 0.10314802563E+02
 0.10637933320E+02 0.10319167393E+02 0.94432760233E+01 0.82497331455E+01 0.70376999589E+01
 0.50778032789E+01 0.48139813995E+01 0.46611636378E+01 0.45900515303E+01 0.45678642042E+01
 0.45694892070E+01 0.45899101441E+01 0.46515425986E+01 0.47966702123E+01 0.50647670012E+01
 0.54654043840E+01 0.59614282299E+01 0.64926676517E+01 0.69700295747E+01 0.72578408401E+01
 0.72552196753E+01 0.69609591755E+01 0.64776946994E+01 0.59481572884E+01 0.54642369011E+01
 0.50782510265E+01 0.52292454518E+01 0.54051320596E+01 0.55496060124E+01 0.56090737126E+01
 0.55577477406E+01 0.54128661720E+01 0.52272523261E+01 0.50647670012E+01 0.49756507490E+01
 0.49823983985E+01 0.50746625127E+01 0.52104129874E+01 0.53278442871E+01 0.53714008800E+01
 0.53209637448E+01 0.52032238058E+01 0.50753517688E+01 0.49941521878E+01 0.49933536895E+01
 0.60195380533E+01 0.65965566488E+01 0.71036824186E+01 0.74062840444E+01 0.74101299838E+01
 0.71151954683E+01 0.66128984450E+01 0.60322755252E+01 0.54654043840E+01 0.49823983985E+01
 0.46343123897E+01 0.44244862489E+01 0.43203811927E+01 0.42798270783E+01 0.42778388104E+01
 0.43193194337E+01 0.44322386453E+01 0.46501088496E+01 0.49953731054E+01 0.54653457326E+01
 0.82874996478E+01 0.94799576137E+01 0.10331911761E+02 0.10637069648E+02 0.10327940976E+02
 0.94816712210E+01 0.83010917440E+01 0.70556683460E+01 0.59614282299E+01 0.50746625127E+01
 0.44244862489E+01 0.40112699695E+01 0.37906058854E+01 0.37219340600E+01 0.37921659404E+01
 0.40167183102E+01 0.44317302160E+01 0.50753517688E+01 0.59496115557E+01 0.70366431491E+01
 0.12611905070E+02 0.14342926862E+02 0.15277632039E+02 0.15268167620E+02 0.14322538618E+02
 0.12597084395E+02 0.10424602291E+02 0.82616650733E+01 0.64926676517E+01 0.52104129874E+01
 0.43203811927E+01 0.37906058854E+01 0.35523594398E+01 0.35538216405E+01 0.37933412893E+01
 0.43199762337E+01 0.52024257806E+01 0.64776946994E+01 0.82480998629E+01 0.10423597838E+02
 0.18875432542E+02 0.20733362438E+02 0.21366411427E+02 0.20723860338E+02 0.18858692700E+02
 0.15997829624E+02 0.12635253580E+02 0.94438358703E+01 0.69700295747E+01 0.53278442871E+01
 0.42798270783E+01 0.37219340600E+01 0.35538216405E+01 0.37235763596E+01 0.42782442803E+01
 0.53205110288E+01 0.69618287412E+01 0.94432760233E+01 0.12646122979E+02 0.16015747435E+02
 0.26147564614E+02 0.27700737774E+02 0.27711397973E+02 0.26167975664E+02 0.23161127079E+02
 0.19030374136E+02 0.14458344395E+02 0.10314802563E+02 0.72578408401E+01 0.53714008800E+01
 0.42778388104E+01 0.37921659404E+01 0.37933412893E+01 0.42782442803E+01 0.53679642322E+01
 0.72559255620E+01 0.10323228831E+02 0.14475273812E+02 0.19040551041E+02 0.23152298495E+02
 0.33483405609E+02 0.34433477938E+02 0.33519153799E+02 0.30792896143E+02 0.26485153905E+02
 0.21102062645E+02 0.15486216742E+02 0.10637933320E+02 0.72552196753E+01 0.53209637448E+01
 0.43193194337E+01 0.40167183102E+01 0.43199762337E+01 0.53205110288E+01 0.72559255620E+01
 0.10645387534E+02 0.15498609808E+02 0.21104355129E+02 0.26461886308E+02 0.30749160546E+02
 0.40291846184E+02 0.40304688093E+02 0.38073418592E+02 0.33905797970E+02 0.28279627930E+02
 0.21834309371E+02 0.15493638032E+02 0.10319167393E+02 0.69609591755E+01 0.52032238058E+01
 0.44322386453E+01 0.44317302160E+01 0.52024257806E+01 0.69618287412E+01 0.10323228831E+02
 0.15498609808E+02 0.21832688764E+02 0.28263559736E+02 0.33876044846E+02 0.38043201646E+02
 0.45900129358E+02 0.44496443588E+02 0.40622150734E+02 0.34990914795E+02 0.28263559736E+02
 0.21104355129E+02 0.14475273812E+02 0.94432760233E+01 0.64776946994E+01 0.50753517688E+01
 0.46501088496E+01 0.50753517688E+01 0.64776946994E+01 0.94432760233E+01 0.14475273812E+02
 0.21104355129E+02 0.28263559736E+02 0.34990914795E+02 0.40622150734E+02 0.44496443588E+02
 0.49202543259E+02 0.46046369221E+02 0.40605924522E+02 0.33860687655E+02 0.26453514078E+02
 0.19040519352E+02 0.12649779954E+02 0.82497331455E+01 0.59481572884E+01 0.49941521878E+01
 0.49953731054E+01 0.59496115557E+01 0.82480998629E+01 0.12646122979E+02 0.19040551041E+02
 0.26461886308E+02 0.33876044846E+02 0.40622150734E+02 0.46057706593E+02 0.49206461411E+02
 0.49208270098E+02 0.44494017018E+02 0.38033157000E+02 0.30736444557E+02 0.23145150552E+02
 0.16016521976E+02 0.10427177303E+02 0.70376999589E+01 0.54642369011E+01 0.49933536895E+01
 0.54653457326E+01 0.70366431491E+01 0.10423597838E+02 0.16015747435E+02 0.23152298495E+02
 0.30749160546E+02 0.38043201646E+02 0.44496443588E+02 0.49206461411E+02 0.50974262197E+02
 0.36740774446E+02 0.31552554882E+02 0.25357337480E+02 0.18871029809E+02 0.13021443771E+02
 0.86997117017E+01 0.61870397193E+01 0.49620545976E+01 0.45908665714E+01 0.49635027562E+01
 0.61868915584E+01 0.86946054294E+01 0.13011602663E+02 0.18862162414E+02 0.25357666008E+02
 0.31565947484E+02 0.36761651754E+02 0.40291846184E+02 0.41551563490E+02 0.40276140274E+02
 0.31552554882E+02 0.26109818572E+02 0.20094148967E+02 0.14347643589E+02 0.97525770011E+01
 0.67992983771E+01 0.52308046569E+01 0.45397913308E+01 0.45415812873E+01 0.52337533604E+01