   1   1   0   0
  0.1371800E+02  0.2687006E-09  0.2687006E-09  0.2687006E-09  0.5000000E-15
  1.000000000000000E-004
  CAR 
 FCC Au                                  
     43.12608178     -5.79472879  301      8.97203027      1.00000000
     -5.795  0.0000E+00  0.0000E+00
     -5.632  0.0000E+00  0.0000E+00
     -5.469  0.0000E+00  0.0000E+00
     -5.306 -0.1304E-33 -0.2126E-34
     -5.142 -0.8422E-28 -0.1373E-28
     -4.979 -0.1424E-22 -0.2322E-23
     -4.816 -0.6283E-18 -0.1025E-18
     -4.653 -0.6968E-14 -0.1136E-14
     -4.490 -0.2040E-10 -0.3328E-11
     -4.327 -0.1515E-07 -0.2474E-08
     -4.164 -0.2769E-05 -0.4540E-06
     -4.001 -0.1149E-03 -0.1919E-04
     -3.838 -0.7391E-03 -0.1397E-03
     -3.675  0.3072E-02  0.3613E-03
     -3.512  0.1335E-01  0.2539E-02
     -3.349  0.2702E-01  0.6945E-02
     -3.186  0.4611E-01  0.1446E-01
     -3.023  0.4339E-01  0.2154E-01
     -2.859  0.4641E-01  0.2911E-01
     -2.696  0.5941E-01  0.3880E-01
     -2.533  0.8056E-01  0.5193E-01
     -2.370  0.9614E-01  0.6761E-01
     -2.207  0.5676E-01  0.7687E-01
     -2.044  0.6140E-01  0.8688E-01
     -1.881  0.1297E+00  0.1080E+00
     -1.718  0.1537E+00  0.1331E+00
     -1.555  0.9964E-01  0.1493E+00
     -1.392  0.9820E-01  0.1654E+00
     -1.229  0.1942E+00  0.1970E+00
     -1.066  0.1622E+00  0.2235E+00
     -0.903  0.2249E+00  0.2601E+00
     -0.740  0.4404E+00  0.3320E+00
     -0.577  0.6362E+00  0.4357E+00
     -0.413  0.6663E+00  0.5443E+00
     -0.250  0.8743E+00  0.6869E+00
     -0.087  0.1128E+01  0.8709E+00
      0.076  0.1438E+01  0.1105E+01
      0.239  0.1415E+01  0.1336E+01
      0.402  0.1383E+01  0.1562E+01
      0.565  0.1505E+01  0.1807E+01
      0.728  0.1085E+01  0.1984E+01
      0.891  0.1219E+01  0.2183E+01
      1.054  0.1254E+01  0.2387E+01
      1.217  0.7779E+00  0.2514E+01
      1.380  0.8639E+00  0.2655E+01
      1.543  0.1273E+01  0.2863E+01
      1.706  0.1302E+01  0.3075E+01
      1.870  0.1369E+01  0.3298E+01
      2.033  0.1270E+01  0.3505E+01
      2.196  0.1191E+01  0.3700E+01
      2.359  0.1503E+01  0.3945E+01
      2.522  0.1605E+01  0.4206E+01
      2.685  0.1478E+01  0.4447E+01
      2.848  0.1626E+01  0.4712E+01
      3.011  0.1886E+01  0.5020E+01
      3.174  0.2531E+01  0.5433E+01
      3.337  0.1998E+01  0.5759E+01
      3.500  0.1329E+01  0.5975E+01
      3.663  0.1197E+01  0.6170E+01
      3.826  0.1036E+01  0.6339E+01
      3.989  0.1147E+01  0.6527E+01
      4.153  0.1100E+01  0.6706E+01
      4.316  0.1211E+01  0.6903E+01
      4.479  0.1427E+01  0.7136E+01
      4.642  0.1469E+01  0.7376E+01
      4.805  0.1474E+01  0.7616E+01
      4.968  0.1025E+01  0.7783E+01
      5.131  0.1311E+01  0.7997E+01
      5.294  0.1527E+01  0.8246E+01
      5.457  0.8103E+00  0.8378E+01
      5.620  0.7486E+00  0.8500E+01
      5.783  0.1376E+01  0.8724E+01
      5.946  0.1243E+01  0.8927E+01
      6.109  0.8475E+00  0.9065E+01
      6.272  0.1279E+01  0.9274E+01
      6.435  0.1761E+01  0.9561E+01
      6.599  0.1673E+01  0.9834E+01
      6.762  0.1712E+01  0.1011E+02
      6.925  0.1448E+01  0.1035E+02
      7.088  0.1065E+01  0.1052E+02
      7.251  0.6431E+00  0.1063E+02
      7.414  0.5189E-01  0.1064E+02
      7.577  0.2960E-01  0.1064E+02
      7.740  0.2106E+00  0.1068E+02
      7.903  0.3573E+00  0.1073E+02
      8.066  0.4741E+00  0.1081E+02
      8.229  0.2952E+00  0.1086E+02
      8.392  0.1008E+00  0.1088E+02
      8.555  0.1353E+00  0.1090E+02
      8.718  0.1972E+00  0.1093E+02
      8.882  0.2654E+00  0.1097E+02
      9.045  0.2907E+00  0.1102E+02
      9.208  0.2373E+00  0.1106E+02
      9.371  0.1935E+00  0.1109E+02
      9.534  0.3256E+00  0.1114E+02
      9.697  0.3194E+00  0.1120E+02
      9.860  0.2575E+00  0.1124E+02
     10.023  0.2319E+00  0.1128E+02
     10.186  0.1517E+00  0.1130E+02
     10.349  0.1407E+00  0.1132E+02
     10.512  0.1208E+00  0.1134E+02
     10.675  0.3943E+00  0.1141E+02
     10.838  0.3668E+00  0.1147E+02
     11.001  0.1541E+00  0.1149E+02
     11.164  0.1934E+00  0.1152E+02
     11.328  0.2085E+00  0.1156E+02
     11.491  0.1842E+00  0.1159E+02
     11.654  0.2006E+00  0.1162E+02
     11.817  0.2249E+00  0.1166E+02
     11.980  0.2085E+00  0.1169E+02
     12.143  0.2109E+00  0.1173E+02
     12.306  0.2214E+00  0.1176E+02
     12.469  0.7398E-01  0.1177E+02
     12.632  0.1473E+00  0.1180E+02
     12.795  0.2120E+00  0.1183E+02
     12.958  0.1563E+00  0.1186E+02
     13.121  0.4294E+00  0.1193E+02
     13.284  0.5510E+00  0.1202E+02
     13.447  0.3230E+00  0.1207E+02
     13.611  0.9698E-01  0.1209E+02
     13.774  0.1591E+00  0.1211E+02
     13.937  0.4737E+00  0.1219E+02
     14.100  0.4999E+00  0.1227E+02
     14.263  0.2551E+00  0.1231E+02
     14.426  0.1286E+00  0.1233E+02
     14.589  0.1558E+00  0.1236E+02
     14.752  0.3457E+00  0.1242E+02
     14.915  0.2022E+00  0.1245E+02
     15.078  0.3041E+00  0.1250E+02
     15.241  0.3225E+00  0.1255E+02
     15.404  0.2679E+00  0.1259E+02
     15.567  0.4562E+00  0.1267E+02
     15.730  0.3673E+00  0.1273E+02
     15.893  0.1152E+00  0.1275E+02
     16.057  0.2120E+00  0.1278E+02
     16.220  0.2713E+00  0.1283E+02
     16.383  0.3361E+00  0.1288E+02
     16.546  0.2244E+00  0.1292E+02
     16.709  0.4752E+00  0.1299E+02
     16.872  0.4154E+00  0.1306E+02
     17.035  0.1223E+00  0.1308E+02
     17.198  0.8972E-01  0.1310E+02
     17.361  0.1226E+00  0.1312E+02
     17.524  0.2251E+00  0.1315E+02
     17.687  0.2833E+00  0.1320E+02
     17.850  0.3027E+00  0.1325E+02
     18.013  0.5187E+00  0.1333E+02
     18.176  0.5119E+00  0.1342E+02
     18.340  0.4739E+00  0.1349E+02
     18.503  0.4016E+00  0.1356E+02
     18.666  0.1064E+00  0.1358E+02
     18.829  0.1588E+00  0.1360E+02
     18.992  0.2304E+00  0.1364E+02
     19.155  0.3480E+00  0.1370E+02
     19.318  0.4201E+00  0.1377E+02
     19.481  0.4023E+00  0.1383E+02
     19.644  0.3454E+00  0.1389E+02
     19.807  0.1952E+00  0.1392E+02
     19.970  0.3403E+00  0.1398E+02
     20.133  0.5993E+00  0.1407E+02
     20.296  0.7147E+00  0.1419E+02
     20.459  0.3884E+00  0.1425E+02
     20.623  0.2904E+00  0.1430E+02
     20.786  0.4149E+00  0.1437E+02
     20.949  0.4802E+00  0.1445E+02
     21.112  0.3810E+00  0.1451E+02
     21.275  0.3834E+00  0.1457E+02
     21.438  0.4670E+00  0.1465E+02
     21.601  0.3302E+00  0.1470E+02
     21.764  0.4430E+00  0.1477E+02
     21.927  0.4917E+00  0.1485E+02
     22.090  0.5634E+00  0.1495E+02
     22.253  0.6121E+00  0.1505E+02
     22.416  0.4032E+00  0.1511E+02
     22.579  0.4063E+00  0.1518E+02
     22.742  0.3136E+00  0.1523E+02
     22.905  0.3499E+00  0.1529E+02
     23.069  0.6900E+00  0.1540E+02
     23.232  0.6675E+00  0.1551E+02
     23.395  0.2596E+00  0.1555E+02
     23.558  0.2574E+00  0.1559E+02
     23.721  0.6146E+00  0.1569E+02
     23.884  0.7803E+00  0.1582E+02
     24.047  0.9769E+00  0.1598E+02
     24.210  0.9601E+00  0.1613E+02
     24.373  0.6139E+00  0.1623E+02
     24.536  0.5370E+00  0.1632E+02
     24.699  0.4281E+00  0.1639E+02
     24.862  0.4960E+00  0.1647E+02
     25.025  0.5897E+00  0.1657E+02
     25.188  0.5142E+00  0.1665E+02
     25.352  0.3689E+00  0.1671E+02
     25.515  0.3470E+00  0.1677E+02
     25.678  0.6925E+00  0.1688E+02
     25.841  0.8616E+00  0.1702E+02
     26.004  0.7890E+00  0.1715E+02
     26.167  0.6530E+00  0.1726E+02
     26.330  0.3990E+00  0.1732E+02
     26.493  0.3780E+00  0.1739E+02
     26.656  0.2608E+00  0.1743E+02
     26.819  0.2376E+00  0.1747E+02
     26.982  0.2895E+00  0.1751E+02
     27.145  0.2535E+00  0.1755E+02
     27.308  0.2036E+00  0.1759E+02
     27.471  0.3171E+00  0.1764E+02
     27.634  0.6086E+00  0.1774E+02
     27.798  0.4825E+00  0.1782E+02
     27.961  0.3748E+00  0.1788E+02
     28.124  0.5355E+00  0.1797E+02
     28.287  0.6570E+00  0.1807E+02
     28.450  0.6977E+00  0.1819E+02
     28.613  0.6778E+00  0.1830E+02
     28.776  0.7481E+00  0.1842E+02
     28.939  0.6666E+00  0.1853E+02
     29.102  0.7576E+00  0.1865E+02
     29.265  0.9192E+00  0.1880E+02
     29.428  0.7290E+00  0.1892E+02
     29.591  0.5382E+00  0.1901E+02
     29.754  0.6271E+00  0.1911E+02
     29.917  0.6441E+00  0.1922E+02
     30.081  0.5944E+00  0.1931E+02
     30.244  0.4996E+00  0.1939E+02
     30.407  0.4504E+00  0.1947E+02
     30.570  0.4903E+00  0.1955E+02
     30.733  0.3854E+00  0.1961E+02
     30.896  0.5198E+00  0.1970E+02
     31.059  0.5859E+00  0.1979E+02
     31.222  0.4971E+00  0.1987E+02
     31.385  0.2529E+00  0.1991E+02
     31.548  0.2632E+00  0.1996E+02
     31.711  0.2877E+00  0.2000E+02
     31.874  0.3406E+00  0.2006E+02
     32.037  0.2853E+00  0.2010E+02
     32.200  0.3564E+00  0.2016E+02
     32.364  0.3388E+00  0.2022E+02
     32.527  0.3335E+00  0.2027E+02
     32.690  0.6231E+00  0.2037E+02
     32.853  0.5332E+00  0.2046E+02
     33.016  0.1802E+00  0.2049E+02
     33.179  0.2602E+00  0.2053E+02
     33.342  0.4100E+00  0.2060E+02
     33.505  0.2707E+00  0.2064E+02
     33.668  0.2117E+00  0.2068E+02
     33.831  0.3868E+00  0.2074E+02
     33.994  0.4994E+00  0.2082E+02
     34.157  0.5939E+00  0.2092E+02
     34.320  0.6950E+00  0.2103E+02
     34.483  0.5946E+00  0.2113E+02
     34.646  0.4333E+00  0.2120E+02
     34.810  0.4030E+00  0.2127E+02
     34.973  0.3975E+00  0.2133E+02
     35.136  0.6119E+00  0.2143E+02
     35.299  0.3755E+00  0.2149E+02
     35.462  0.3225E+00  0.2154E+02
     35.625  0.5097E+00  0.2163E+02
     35.788  0.3255E+00  0.2168E+02
     35.951  0.3163E+00  0.2173E+02
     36.114  0.5048E+00  0.2182E+02
     36.277  0.6718E+00  0.2192E+02
     36.440  0.6559E+00  0.2203E+02
     36.603  0.6019E+00  0.2213E+02
     36.766  0.7208E+00  0.2225E+02
     36.929  0.7553E+00  0.2237E+02
     37.093  0.4511E+00  0.2244E+02
     37.256  0.4381E+00  0.2252E+02
     37.419  0.6711E+00  0.2262E+02
     37.582  0.7225E+00  0.2274E+02
     37.745  0.6777E+00  0.2285E+02
     37.908  0.4996E+00  0.2293E+02
     38.071  0.5061E+00  0.2302E+02
     38.234  0.7791E+00  0.2314E+02
     38.397  0.1187E+01  0.2334E+02
     38.560  0.1166E+01  0.2353E+02
     38.723  0.5406E+00  0.2362E+02
     38.886  0.2116E+00  0.2365E+02
     39.049  0.1834E+00  0.2368E+02
     39.212  0.2234E+00  0.2372E+02
     39.375  0.1483E+00  0.2374E+02
     39.539  0.2489E+00  0.2378E+02
     39.702  0.3192E+00  0.2383E+02
     39.865  0.3588E+00  0.2389E+02
     40.028  0.3009E+00  0.2394E+02
     40.191  0.1385E+00  0.2396E+02
     40.354  0.1763E-01  0.2397E+02
     40.517  0.3793E-01  0.2397E+02
     40.680  0.3969E-01  0.2398E+02
     40.843  0.6439E-01  0.2399E+02
     41.006  0.5449E-01  0.2400E+02
     41.169  0.9193E-02  0.2400E+02
     41.332 -0.2431E-02  0.2400E+02
     41.495 -0.3504E-03  0.2400E+02
     41.658 -0.8339E-05  0.2400E+02
     41.822 -0.4549E-07  0.2400E+02
     41.985 -0.6121E-10  0.2400E+02
     42.148 -0.2090E-13  0.2400E+02
     42.311  0.0000E+00  0.2400E+02
     42.474  0.0000E+00  0.2400E+02
     42.637  0.0000E+00  0.2400E+02
     42.800  0.0000E+00  0.2400E+02
     42.963  0.0000E+00  0.2400E+02
     43.126  0.0000E+00  0.2400E+02
