    1    1    1    1
  0.1371800E+02  0.2687006E-09  0.2687006E-09  0.2687006E-09  0.5000000E-15
  1.000000000000000E-004
  CAR 
 FCC Au                                  
     11    110     12
 
  0.5000000E-01  0.5000000E-01  0.5000000E-01  0.2000000E-02
    1       -3.571056   1.000000
    2        2.654618   1.000000
    3        2.742616   1.000000
    4        2.742616   1.000000
    5        4.919088   1.000000
    6        4.919088   1.000000
    7       24.096978   0.000000
    8       28.419709   0.000000
    9       29.286109   0.000000
   10       29.286109   0.000000
   11       34.613774   0.000000
   12       39.819692   0.000000
 
  0.1500000E+00  0.5000000E-01  0.5000000E-01  0.6000000E-02
    1       -3.015818   1.000000
    2        2.424555   1.000000
    3        2.936271   1.000000
    4        2.981584   1.000000
    5        4.688324   1.000000
    6        4.984932   1.000000
    7       24.830445   0.000000
    8       26.349700   0.000000
    9       29.245253   0.000000
   10       30.463012   0.000000
   11       35.211088   0.000000
   12       38.204202   0.000000
 
  0.2500000E+00  0.5000000E-01  0.5000000E-01  0.6000000E-02
    1       -1.850602   1.000000
    2        2.239458   1.000000
    3        3.142378   1.000000
    4        3.177832   1.000000
    5        4.687693   1.000000
    6        5.283569   1.000000
    7       22.917975   0.000000
    8       25.709553   0.000000
    9       30.117691   0.000000
   10       32.339397   0.000000
   11       32.520918   0.000000
   12       35.889142   0.000000
 
  0.3500000E+00  0.5000000E-01  0.5000000E-01  0.6000000E-02
    1       -0.919326   1.000000
    2        2.876225   1.000000
    3        3.007042   1.000000
    4        3.104967   1.000000
    5        5.398459   1.000000
    6        6.094058   1.000000
    7       18.940409   0.000000
    8       24.804492   0.000000
    9       29.389799   0.000000
   10       31.968748   0.000000
   11       33.458830   0.000000
   12       35.180147   0.000000
 
  0.4500000E+00  0.5000000E-01  0.5000000E-01  0.6000000E-02
    1       -0.762346   1.000000
    2        2.661724   1.000000
    3        2.763869   1.000000
    4        4.987375   1.000000
    5        6.283044   1.000000
    6        7.103820   1.000000
    7       14.948764   0.000000
    8       23.690986   0.000000
    9       28.040866   0.000000
   10       29.260889   0.000000
   11       36.172070   0.000000
   12       36.906603   0.000000
 
 -0.4500000E+00  0.5000000E-01  0.5000000E-01  0.6000000E-02
    1       -0.779262   1.000000
    2        2.566071   1.000000
    3        2.708718   1.000000
    4        5.678264   1.000000
    5        6.714881   1.000000
    6        7.720891   1.000000
    7       13.291679  -0.000000
    8       23.390780   0.000000
    9       28.006612   0.000000
   10       28.090240   0.000000
   11       37.164878   0.000000
   12       37.304644   0.000000
 
 -0.3500000E+00  0.5000000E-01  0.5000000E-01  0.6000000E-02
    1       -0.770061   1.000000
    2        2.704280   1.000000
    3        2.866053   1.000000
    4        4.270432   1.000000
    5        6.409677   1.000000
    6        6.422773   1.000000
    7       16.186704   0.000000
    8       23.992771   0.000000
    9       28.663993   0.000000
   10       29.633298   0.000000
   11       36.117935   0.000000
   12       36.138078   0.000000
 
 -0.2500000E+00  0.5000000E-01  0.5000000E-01  0.6000000E-02
    1       -1.135548   1.000000
    2        2.569752   1.000000
    3        3.016401   1.000000
    4        3.117093   1.000000
    5        5.250999   1.000000
    6        5.664274   1.000000
    7       20.322398   0.000000
    8       25.272480   0.000000
    9       30.050521   0.000000
   10       31.909888   0.000000
   11       33.451302   0.000000
   12       35.022334   0.000000
 
 -0.1500000E+00  0.5000000E-01  0.5000000E-01  0.6000000E-02
    1       -2.270936   1.000000
    2        2.229860   1.000000
    3        3.134268   1.000000
    4        3.156972   1.000000
    5        4.625877   1.000000
    6        5.110413   1.000000
    7       24.129939   0.000000
    8       25.610060   0.000000
    9       29.989935   0.000000
   10       31.182974   0.000000
   11       33.690339   0.000000
   12       36.279237   0.000000
 
 -0.5000000E-01  0.5000000E-01  0.5000000E-01  0.6000000E-02
    1       -3.287664   1.000000
    2        2.494781   1.000000
    3        2.876085   1.000000
    4        2.884152   1.000000
    5        4.727589   1.000000
    6        5.001682   1.000000
    7       24.498237   0.000000
    8       27.459365   0.000000
    9       29.232467   0.000000
   10       29.539134   0.000000
   11       35.883142   0.000000
   12       38.735642   0.000000
 
  0.1500000E+00  0.1500000E+00  0.5000000E-01  0.6000000E-02
    1       -2.741092   1.000000
    2        2.178868   1.000000
    3        3.156911   1.000000
    4        3.162694   1.000000
    5        4.394544   1.000000
    6        5.160965   1.000000
    7       25.243600   0.000000
    8       26.567626   0.000000
    9       28.929551   0.000000
   10       29.378617   0.000000
   11       36.063104   0.000000
   12       37.275029   0.000000
 
  0.2500000E+00  0.1500000E+00  0.5000000E-01  0.1200000E-01
    1       -1.763799   1.000000
    2        1.819662   1.000000
    3        3.280004   1.000000
    4        3.552711   1.000000
    5        4.304577   1.000000
    6        5.473553   1.000000
    7       24.435544   0.000000
    8       26.080155   0.000000
    9       28.363441   0.000000
   10       29.751167   0.000000
   11       33.890001   0.000000
   12       36.463368   0.000000
 
  0.3500000E+00  0.1500000E+00  0.5000000E-01  0.1200000E-01
    1       -0.637461   1.000000
    2        1.936560   1.000000
    3        2.831802   1.000000
    4        3.559462   1.000000
    5        5.234924   1.000000
    6        6.284084   1.000000
    7       20.603152   0.000000
    8       25.562426   0.000000
    9       27.482627   0.000000
   10       30.066751   0.000000
   11       34.348242   0.000000
   12       35.592962   0.000000
 
  0.4500000E+00  0.1500000E+00  0.5000000E-01  0.1200000E-01
    1       -0.298280   1.000000
    2        2.392131   1.000000
    3        3.125439   1.000000
    4        3.364927   1.000000
    5        6.354355   1.000000
    6        7.699446   1.000000
    7       16.317739   0.000000
    8       24.476923   0.000000
    9       26.398763   0.000000
   10       28.864772   0.000000
   11       35.695665   0.000000
   12       37.506884   0.000000
 
 -0.4500000E+00  0.1500000E+00  0.5000000E-01  0.1200000E-01
    1       -0.307838   1.000000
    2        2.210550   1.000000
    3        3.125502   1.000000
    4        4.274659   1.000000
    5        6.638479   1.000000
    6        9.591005  -0.000054
    7       13.176393  -0.000000
    8       23.917624   0.000000
    9       26.077161   0.000000
   10       27.610746   0.000000
   11       36.857476   0.000000
   12       37.789873   0.000000
 
 -0.3500000E+00  0.1500000E+00  0.5000000E-01  0.1200000E-01
    1       -0.265378   1.000000
    2        2.330360   1.000000
    3        3.160186   1.000000
    4        3.819069   1.000000
    5        6.150406   1.000000
    6        8.548212   1.005340
    7       15.106385   0.000000
    8       24.056353   0.000000
    9       25.947204   0.000000
   10       28.967999   0.000000
   11       35.415800   0.000000
   12       37.648046   0.000000
 
 -0.2500000E+00  0.1500000E+00  0.5000000E-01  0.1200000E-01
    1       -0.384843   1.000000
    2        2.329659   1.000000
    3        2.736963   1.000000
    4        3.431656   1.000000
    5        5.125840   1.000000
    6        7.012113   1.000000
    7       19.193858   0.000000
    8       24.775607   0.000000
    9       26.965394   0.000000
   10       31.112677   0.000000
   11       33.268230   0.000000
   12       36.555404   0.000000
 
 -0.1500000E+00  0.1500000E+00  0.5000000E-01  0.1200000E-01
    1       -1.346494   1.000000
    2        1.879783   1.000000
    3        3.120573   1.000000
    4        3.584238   1.000000
    5        4.298371   1.000000
    6        5.838886   1.000000
    7       23.064513   0.000000
    8       25.607812   0.000000
    9       28.721073   0.000000
   10       29.890881   0.000000
   11       34.064390   0.000000
   12       36.247580   0.000000
 
 -0.5000000E-01  0.1500000E+00  0.5000000E-01  0.1200000E-01
    1       -2.491559   1.000000
    2        2.181829   1.000000
    3        3.157073   1.000000
    4        3.174701   1.000000
    5        4.452646   1.000000
    6        5.168747   1.000000
    7       25.215777   0.000000
    8       25.534901   0.000000
    9       28.967428   0.000000
   10       30.823001   0.000000
   11       34.121664   0.000000
   12       37.368639   0.000000
 
  0.2500000E+00  0.2500000E+00  0.5000000E-01  0.6000000E-02
    1       -1.136314   1.000000
    2        1.315556   1.000000
    3        3.477609   1.000000
    4        4.096000   1.000000
    5        4.359446   1.000000
    6        5.660377   1.000000
    7       25.158129   0.000000
    8       26.660613   0.000000
    9       26.992589   0.000000
   10       27.932990   0.000000
   11       31.518553   0.000000
   12       37.116626   0.000000
 
  0.3500000E+00  0.2500000E+00  0.5000000E-01  0.1200000E-01
    1       -0.262343   1.000000
    2        1.002405   1.000000
    3        3.105221   1.000000
    4        4.587178   1.000000
    5        5.273691   1.000000
    6        6.321477   1.000000
    7       22.440015   0.000000
    8       24.600812   0.000000
    9       26.034765   0.000000
   10       29.053832   0.000000
   11       31.028260   0.000000
   12       37.269819   0.000000
 
  0.4500000E+00  0.2500000E+00  0.5000000E-01  0.1200000E-01
    1        0.189707   1.000000
    2        1.347181   1.000000
    3        2.766178   1.000000
    4        4.387767   1.000000
    5        6.491619   1.000000
    6        8.060278   1.000000
    7       17.952348   0.000000
    8       23.885996   0.000000
    9       24.215407   0.000000
   10       28.618464   0.000000
   11       34.214584   0.000000
   12       37.648165   0.000000
 
 -0.4500000E+00  0.2500000E+00  0.5000000E-01  0.1200000E-01
    1        0.322689   1.000000
    2        1.681068   1.000000
    3        3.017326   1.000000
    4        4.096116   1.000000
    5        6.690118   1.000000
    6       10.955078  -0.000000
    7       13.953410  -0.000000
    8       22.516934   0.000000
    9       24.360936   0.000000
   10       27.747648   0.000000
   11       36.751993   0.000000
   12       38.947630   0.000000
 
 -0.3500000E+00  0.2500000E+00  0.5000000E-01  0.1200000E-01
    1        0.574527   1.000000
    2        1.777438   1.000000
    3        3.016006   1.000000
    4        3.944032   1.000000
    5        6.087640   1.000000
    6       10.785426  -0.000000
    7       14.700619   0.000000
    8       21.326797   0.000000
    9       25.539473   0.000000
   10       28.006555   0.000000
   11       35.518535   0.000000
   12       38.293978   0.000000
 
 -0.2500000E+00  0.2500000E+00  0.5000000E-01  0.1200000E-01
    1        0.752190   1.000000
    2        1.932579   1.000000
    3        2.229806   1.000000
    4        4.053630   1.000000
    5        5.075091   1.000000
    6        8.822875   0.974846
    7       18.381884   0.000000
    8       21.380509   0.000000
    9       26.343184   0.000000
   10       30.333345   0.000000
   11       32.623551   0.000000
   12       38.339656   0.000000
 
 -0.1500000E+00  0.2500000E+00  0.5000000E-01  0.1200000E-01
    1       -0.134176   1.000000
    2        1.770769   1.000000
    3        2.703286   1.000000
    4        3.895523   1.000000
    5        4.494279   1.000000
    6        7.149676   1.000000
    7       20.662751   0.000000
    8       23.836091   0.000000
    9       27.250287   0.000000
   10       30.503662   0.000000
   11       33.179321   0.000000
   12       37.298268   0.000000
 
 -0.5000000E-01  0.2500000E+00  0.5000000E-01  0.1200000E-01
    1       -1.277207   1.000000
    2        2.129954   1.000000
    3        3.084602   1.000000
    4        3.311198   1.000000
    5        4.766386   1.000000
    6        5.734865   1.000000
    7       21.772859   0.000000
    8       25.725102   0.000000
    9       29.142390   0.000000
   10       31.093883   0.000000
   11       34.003750   0.000000
   12       34.977629   0.000000
 
  0.3500000E+00  0.3500000E+00  0.5000000E-01  0.6000000E-02
    1       -0.218603   1.000000
    2        0.475272   1.000000
    3        4.265605   1.000000
    4        5.357173   1.000000
    5        5.880983   1.000000
    6        6.261754   1.000000
    7       22.388695   0.000000
    8       23.225260   0.000000
    9       24.023412   0.000000
   10       28.093933   0.000000
   11       30.012893   0.000000
   12       39.716713   0.000000
 
  0.4500000E+00  0.3500000E+00  0.5000000E-01  0.1200000E-01
    1       -0.115409   1.000000
    2        0.330079   1.000000
    3        4.356430   1.000000
    4        5.779128   1.000000
    5        6.511270   1.000000
    6        8.040045   1.000000
    7       19.323936   0.000000
    8       21.473989   0.000000
    9       22.208591   0.000000
   10       29.227213   0.000000
   11       31.317296   0.000000
   12       39.489852   0.000000
 
 -0.4500000E+00  0.3500000E+00  0.5000000E-01  0.1200000E-01
    1        0.080037   1.000000
    2        0.751958   1.000000
    3        3.867452   1.000000
    4        5.335965   1.000000
    5        6.837324   1.000000
    6       11.228534  -0.000000
    7       15.513336   0.000000
    8       19.963558   0.000000
    9       22.123428   0.000000
   10       29.330258   0.000000
   11       34.371104   0.000000
   12       38.477284   0.000000
 
 -0.3500000E+00  0.3500000E+00  0.5000000E-01  0.1200000E-01
    1        0.482935   1.000000
    2        1.438431   1.000000
    3        3.116303   1.000000
    4        4.851192   1.000000
    5        6.346538   1.000000
    6       12.600172  -0.000000
    7       15.035477   0.000000
    8       18.107969   0.000000
    9       23.823155   0.000000
   10       28.734301   0.000000
   11       36.859639   0.000000
   12       38.294518   0.000000
 
 -0.2500000E+00  0.3500000E+00  0.5000000E-01  0.1200000E-01
    1        0.925398   1.000000
    2        1.832963   1.000000
    3        2.426526   1.000000
    4        4.330057   1.000000
    5        5.733493   1.000000
    6       10.649591  -0.000000
    7       16.752450   0.000000
    8       19.108499   0.000000
    9       25.732112   0.000000
   10       28.488544   0.000000
   11       34.793143   0.000000
   12       38.427939   0.000000
 
 -0.1500000E+00  0.3500000E+00  0.5000000E-01  0.1200000E-01
    1        0.217953   1.000000
    2        2.182452   1.000000
    3        2.829564   1.000000
    4        3.622182   1.000000
    5        5.598995   1.000000
    6        8.745990   1.033897
    7       16.708605   0.000000
    8       23.068702   0.000000
    9       25.864486   0.000000
   10       29.678215   0.000000
   11       33.873449   0.000000
   12       37.979442   0.000000
 
 -0.5000000E-01  0.3500000E+00  0.5000000E-01  0.1200000E-01
    1       -0.633752   1.000000
    2        2.705815   1.000000
    3        3.059781   1.000000
    4        3.290363   1.000000
    5        5.780553   1.000000
    6        6.749501   1.000000
    7       17.616179   0.000000
    8       24.547842   0.000000
    9       27.875665   0.000000
   10       30.538741   0.000000
   11       34.530530   0.000000
   12       36.281137   0.000000
 
  0.4500000E+00  0.4500000E+00  0.5000000E-01  0.6000000E-02
    1       -0.499909   1.000000
    2       -0.069106   1.000000
    3        6.234149   1.000000
    4        6.382192   1.000000
    5        6.881511   1.000000
    6        8.278032   1.000005
    7       18.335386   0.000000
    8       20.313637   0.000000
    9       20.554553   0.000000
   10       28.553258   0.000000
   11       31.525200   0.000000
   12       40.730118   0.000000
 
 -0.4500000E+00  0.4500000E+00  0.5000000E-01  0.1200000E-01
    1       -0.419954   1.000000
    2        0.004846   1.000000
    3        5.667859   1.000000
    4        6.298798   1.000000
    5        7.102797   1.000000
    6       10.640524  -0.000000
    7       16.219363   0.000000
    8       19.239040   0.000000
    9       20.182405   0.000000
   10       29.679695   0.000000
   11       32.092310   0.000000
   12       39.767966   0.000000
 
 -0.3500000E+00  0.4500000E+00  0.5000000E-01  0.1200000E-01
    1       -0.008182   1.000000
    2        0.631862   1.000000
    3        4.262421   1.000000
    4        5.588649   1.000000
    5        6.827824   1.000000
    6       12.749895  -0.000000
    7       14.685504   0.000000
    8       18.403181   0.000000
    9       21.700667   0.000000
   10       29.677065   0.000000
   11       34.449002   0.000000
   12       38.485245   0.000000
 
 -0.2500000E+00  0.4500000E+00  0.5000000E-01  0.1200000E-01
    1        0.461593   1.000000
    2        1.493863   1.000000
    3        3.057972   1.000000
    4        4.533604   1.000000
    5        6.534707   1.000000
    6       12.986279  -0.000000
    7       13.088495  -0.000000
    8       20.295179   0.000000
    9       24.003096   0.000000
   10       28.281463   0.000000
   11       36.817166   0.000000
   12       38.705771   0.000000
 
 -0.1500000E+00  0.4500000E+00  0.5000000E-01  0.1200000E-01
    1        0.105614   1.000000
    2        1.949949   1.000000
    3        3.497957   1.000000
    4        3.659451   1.000000
    5        6.445446   1.000000
    6       10.676391  -0.000000
    7       13.247409  -0.000000
    8       23.271801   0.000000
    9       25.342209   0.000000
   10       27.571831   0.000000
   11       36.399628   0.000000
   12       38.055866   0.000000
 
 -0.5000000E-01  0.4500000E+00  0.5000000E-01  0.1200000E-01
    1       -0.605389   1.000000
    2        2.470339   1.000000
    3        2.870847   1.000000
    4        4.809932   1.000000
    5        6.566230   1.000000
    6        8.169958   1.000000
    7       13.912127  -0.000000
    8       23.722137   0.000000
    9       27.166777   0.000000
   10       28.376107   0.000000
   11       36.659633   0.000000
   12       37.427991   0.000000
 
 -0.4500000E+00 -0.4500000E+00  0.5000000E-01  0.6000000E-02
    1       -0.616767   1.000000
    2       -0.183718   1.000000
    3        6.562772   1.000000
    4        6.709115   1.000000
    5        7.123466   1.000000
    6        9.457700  -0.001585
    7       16.701564   0.000000
    8       19.593785   0.000000
    9       19.925533   0.000000
   10       28.786328   0.000000
   11       31.862467   0.000000
   12       40.442601   0.000000
 
 -0.3500000E+00 -0.4500000E+00  0.5000000E-01  0.1200000E-01
    1       -0.300517   1.000000
    2        0.115091   1.000000
    3        5.144681   1.000000
    4        6.183702   1.000000
    5        6.865837   1.000000
    6        9.423065  -0.003221
    7       17.618652   0.000000
    8       20.077274   0.000000
    9       20.832042   0.000000
   10       29.470310   0.000000
   11       31.816611   0.000000
   12       39.796236   0.000000
 
 -0.2500000E+00 -0.4500000E+00  0.5000000E-01  0.1200000E-01
    1        0.189656   1.000000
    2        0.998673   1.000000
    3        3.283843   1.000000
    4        4.891590   1.000000
    5        6.760022   1.000000
    6        9.543897  -0.000201
    7       16.633691   0.000000
    8       22.037231   0.000000
    9       22.948880   0.000000
   10       28.846303   0.000000
   11       34.267772   0.000000
   12       38.248321   0.000000
 
 -0.1500000E+00 -0.4500000E+00  0.5000000E-01  0.1200000E-01
    1        0.044638   1.000000
    2        2.011674   1.000000
    3        3.049073   1.000000
    4        3.677311   1.000000
    5        6.662225   1.000000
    6        9.145898  -0.005722
    7       15.070452   0.000000
    8       24.149943   0.000000
    9       25.044578   0.000000
   10       27.774069   0.000000
   11       36.447573   0.000000
   12       38.532355   0.000000
 
 -0.3500000E+00 -0.3500000E+00  0.5000000E-01  0.6000000E-02
    1       -0.319142   1.000000
    2        0.155265   1.000000
    3        5.333569   1.000000
    4        5.961680   1.000000
    5        6.566019   1.000000
    6        6.942817   1.000000
    7       20.493663   0.000000
    8       21.705739   0.000000
    9       21.789376   0.000000
   10       28.226397   0.000000
   11       30.909758   0.000000
   12       40.902409   0.000000
 
 -0.2500000E+00 -0.3500000E+00  0.5000000E-01  0.1200000E-01
    1       -0.012627   1.000000
    2        0.633936   1.000000
    3        3.551916   1.000000
    4        5.196055   1.000000
    5        5.990279   1.000000
    6        6.974053   1.000000
    7       20.969295   0.000000
    8       23.012626   0.000000
    9       24.157100   0.000000
   10       29.190659   0.000000
   11       30.744822   0.000000
   12       38.529303   0.000000
 
 -0.1500000E+00 -0.3500000E+00  0.5000000E-01  0.1200000E-01
    1       -0.085855   1.000000
    2        1.689251   1.000000
    3        2.603684   1.000000
    4        3.926033   1.000000
    5        5.940218   1.000000
    6        6.979167   1.000000
    7       19.317836   0.000000
    8       25.044090   0.000000
    9       25.808194   0.000000
   10       29.059931   0.000000
   11       34.240461   0.000000
   12       36.735207   0.000000
 
 -0.2500000E+00 -0.2500000E+00  0.5000000E-01  0.6000000E-02
    1       -0.457299   1.000000
    2        0.871765   1.000000
    3        3.571392   1.000000
    4        4.708924   1.000000
    5        5.035417   1.000000
    6        5.958387   1.000000
    7       24.013214   0.000000
    8       24.948721   0.000000
    9       26.031545   0.000000
   10       28.636511   0.000000
   11       29.277590   0.000000
   12       38.176239   0.000000
 
 -0.1500000E+00 -0.2500000E+00  0.5000000E-01  0.1200000E-01
    1       -0.941907   1.000000
    2        1.409962   1.000000
    3        3.145155   1.000000
    4        4.029610   1.000000
    5        4.622920   1.000000
    6        5.859545   1.000000
    7       23.576616   0.000000
    8       25.896935   0.000000
    9       27.589017   0.000000
   10       28.656544   0.000000
   11       32.721067   0.000000
   12       36.220782   0.000000
 
 -0.1500000E+00 -0.1500000E+00  0.5000000E-01  0.6000000E-02
    1       -1.983476   1.000000
    2        1.767764   1.000000
    3        3.489442   1.000000
    4        3.570889   1.000000
    5        4.086398   1.000000
    6        5.385459   1.000000
    7       25.811638   0.000000
    8       26.295490   0.000000
    9       28.080606   0.000000
   10       28.652993   0.000000
   11       34.316320   0.000000
   12       36.676077   0.000000
 
  0.1500000E+00  0.1500000E+00  0.1500000E+00  0.2000000E-02
    1       -2.760887   1.000000
    2        2.395425   1.000000
    3        3.006192   1.000000
    4        3.006192   1.000000
    5        4.835468   1.000000
    6        4.835468   1.000000
    7       24.974209   0.000000
    8       25.407203   0.000000
    9       30.392144   0.000000
   10       30.392144   0.000000
   11       34.556263   0.000000
   12       37.690468   0.000000
 
  0.2500000E+00  0.1500000E+00  0.1500000E+00  0.6000000E-02
    1       -2.011751   1.000000
    2        2.097733   1.000000
    3        3.175061   1.000000
    4        3.295956   1.000000
    5        4.368910   1.000000
    6        5.392171   1.000000
    7       24.101790   0.000000
    8       25.678890   0.000000
    9       28.866034   0.000000
   10       31.789253   0.000000
   11       32.595265   0.000000
   12       37.767218   0.000000
 
  0.3500000E+00  0.1500000E+00  0.1500000E+00  0.6000000E-02
    1       -0.778485   1.000000
    2        1.872766   1.000000
    3        2.992073   1.000000
    4        3.690823   1.000000
    5        4.229651   1.000000
    6        6.435785   1.000000
    7       21.829804   0.000000
    8       24.857033   0.000000
    9       28.329956   0.000000
   10       29.902457   0.000000
   11       34.112771   0.000000
   12       36.466945   0.000000
 
  0.4500000E+00  0.1500000E+00  0.1500000E+00  0.6000000E-02
    1       -0.097188   1.000000
    2        2.416196   1.000000
    3        2.848415   1.000000
    4        3.391412   1.000000
    5        5.209344   1.000000
    6        7.825660   1.000000
    7       17.904985   0.000000
    8       23.967952   0.000000
    9       26.378576   0.000000
   10       31.067257   0.000000
   11       32.857437   0.000000
   12       37.428243   0.000000
 
 -0.4500000E+00  0.1500000E+00  0.1500000E+00  0.6000000E-02
    1       -0.131694   1.000000
    2        2.188628   1.000000
    3        3.231176   1.000000
    4        3.963189   1.000000
    5        6.228348   1.000000
    6        9.507140  -0.000510
    7       14.075127  -0.000000
    8       23.640502   0.000000
    9       25.825312   0.000000
   10       28.155940   0.000000
   11       35.987530   0.000000
   12       37.606368   0.000000
 
 -0.3500000E+00  0.1500000E+00  0.1500000E+00  0.6000000E-02
    1       -0.189955   1.000000
    2        2.143385   1.000000
    3        3.304134   1.000000
    4        3.758772   1.000000
    5        6.762757   1.000000
    6        9.383438  -0.006620
    7       13.851119  -0.000000
    8       23.985872   0.000000
    9       26.607109   0.000000
   10       26.734814   0.000000
   11       37.230812   0.000000
   12       37.843236   0.000000
 
 -0.2500000E+00  0.1500000E+00  0.1500000E+00  0.6000000E-02
    1       -0.234150   1.000000
    2        2.259045   1.000000
    3        2.642364   1.000000
    4        3.539014   1.000000
    5        6.539230   1.000000
    6        6.971166   1.000000
    7       17.728399   0.000000
    8       24.946730   0.000000
    9       26.545243   0.000000
   10       28.468828   0.000000
   11       36.172204   0.000000
   12       36.596906   0.000000
 
 -0.1500000E+00  0.1500000E+00  0.1500000E+00  0.6000000E-02
    1       -0.833265   1.000000
    2        1.592920   1.000000
    3        3.008409   1.000000
    4        3.737949   1.000000
    5        5.113374   1.000000
    6        5.870893   1.000000
    7       22.115477   0.000000
    8       26.307736   0.000000
    9       27.316731   0.000000
   10       29.316017   0.000000
   11       33.394194   0.000000
   12       37.135858   0.000000
 
  0.2500000E+00  0.2500000E+00  0.1500000E+00  0.6000000E-02
    1       -1.594194   1.000000
    2        1.938355   1.000000
    3        3.195853   1.000000
    4        3.398365   1.000000
    5        4.623107   1.000000
    6        5.469066   1.000000
    7       23.151164   0.000000
    8       26.088877   0.000000
    9       28.919225   0.000000
   10       30.489779   0.000000
   11       33.714275   0.000000
   12       35.831242   0.000000
 
  0.3500000E+00  0.2500000E+00  0.1500000E+00  0.1200000E-01
    1       -0.585717   1.000000
    2        1.578504   1.000000
    3        2.860871   1.000000
    4        3.983842   1.000000
    5        4.589267   1.000000
    6        6.407287   1.000000
    7       22.034940   0.000000
    8       24.915581   0.000000
    9       27.596688   0.000000
   10       29.481751   0.000000
   11       34.313661   0.000000
   12       35.438702   0.000000
 
  0.4500000E+00  0.2500000E+00  0.1500000E+00  0.1200000E-01
    1        0.471733   1.000000
    2        1.616062   1.000000
    3        2.284961   1.000000
    4        4.287253   1.000000
    5        5.040188   1.000000
    6        7.961872   1.000000
    7       19.495619   0.000000
    8       22.603078   0.000000
    9       26.059654   0.000000
   10       30.854679   0.000000
   11       32.488486   0.000000
   12       38.021679   0.000000
 
 -0.4500000E+00  0.2500000E+00  0.1500000E+00  0.1200000E-01
    1        0.554961   1.000000
    2        1.810289   1.000000
    3        2.704792   1.000000
    4        4.001453   1.000000
    5        6.064587   1.000000
    6        9.901886  -0.000000
    7       15.610099   0.000000
    8       22.172151   0.000000
    9       24.811976   0.000000
   10       29.112051   0.000000
   11       34.646537   0.000000
   12       38.803270   0.000000
 
 -0.3500000E+00  0.2500000E+00  0.1500000E+00  0.1200000E-01
    1        0.445745   1.000000
    2        1.679765   1.000000
    3        3.157464   1.000000
    4        3.909936   1.000000
    5        6.512165   1.000000
    6       11.609650  -0.000000
    7       13.137494  -0.000000
    8       22.913894   0.000000
    9       23.752099   0.000000
   10       28.326597   0.000000
   11       35.961753   0.000000
   12       39.143369   0.000000
 
 -0.2500000E+00  0.2500000E+00  0.1500000E+00  0.1200000E-01
    1        0.390537   1.000000
    2        1.803586   1.000000
    3        2.423629   1.000000
    4        4.188033   1.000000
    5        6.243984   1.000000
    6        9.007343   0.353132
    7       16.669913   0.000000
    8       23.124094   0.000000
    9       24.381521   0.000000
   10       29.179786   0.000000
   11       34.673235   0.000000
   12       38.491127   0.000000
 
 -0.1500000E+00  0.2500000E+00  0.1500000E+00  0.1200000E-01
    1        0.082990   1.000000
    2        1.259212   1.000000
    3        2.617155   1.000000
    4        4.479753   1.000000
    5        5.171219   1.000000
    6        7.092473   1.000000
    7       20.863819   0.000000
    8       23.713090   0.000000
    9       25.998582   0.000000
   10       29.914215   0.000000
   11       32.716590   0.000000