 running on    4 total cores
 distrk:  each k-point on    4 cores,    1 groups
 distr:  one band on    1 cores,    4 groups
 using from now: INCAR     
 vasp.5.4.4.18Apr17-6-g9f103f2a35 (build Jul 01 2019 03:25:34) complex          
  
 POSCAR found type information on POSCAR  Au
 POSCAR found :  1 types and       1 ions
 scaLAPACK will be used
 LDA part: xc-table for Ceperly-Alder, standard interpolation
 found WAVECAR, reading the header
 WAVECAR: different cutoff or change in lattice found
 POSCAR, INCAR and KPOINTS ok, starting setup
 FFT: planning ...
 reading WAVECAR
 the WAVECAR file was read successfully
 initial charge from wavefunction
 entering main loop
       N       E                     dE             d eps       ncg     rms          rms(c)
DAV:   1    -0.105704313195E+02   -0.10570E+02   -0.10401E+02  3048   0.118E+02    0.148E+01
DAV:   2    -0.432755553358E+01    0.62429E+01   -0.12394E+01  2932   0.395E+01    0.401E+00
DAV:   3    -0.387318947943E+01    0.45437E+00   -0.18348E+00  3136   0.145E+01    0.336E-01
DAV:   4    -0.387837966067E+01   -0.51902E-02   -0.17343E-02  2900   0.133E+00    0.171E-01
DAV:   5    -0.387814703673E+01    0.23262E-03   -0.24017E-03  3268   0.536E-01    0.184E-02
DAV:   6    -0.387815400914E+01   -0.69724E-05   -0.42439E-05  1652   0.675E-02
   1 F= -.38781540E+01 E0= -.38780211E+01  d E =-.398656E-03
 writing wavefunctions
