       N       E                     dE             d eps       ncg     rms          rms(c)
DAV:   1    -0.105704313195E+02   -0.10570E+02   -0.10401E+02  3048   0.118E+02    0.148E+01
DAV:   2    -0.432755553358E+01    0.62429E+01   -0.12394E+01  2932   0.395E+01    0.401E+00
DAV:   3    -0.387318947943E+01    0.45437E+00   -0.18348E+00  3136   0.145E+01    0.336E-01
DAV:   4    -0.387837966067E+01   -0.51902E-02   -0.17343E-02  2900   0.133E+00    0.171E-01
DAV:   5    -0.387814703673E+01    0.23262E-03   -0.24017E-03  3268   0.536E-01    0.184E-02
DAV:   6    -0.387815400914E+01   -0.69724E-05   -0.42439E-05  1652   0.675E-02
   1 F= -.38781540E+01 E0= -.38780211E+01  d E =-.398656E-03
