 vasp.5.4.4.18Apr17-6-g9f103f2a35 (build Jul 01 2019 03:25:34) complex          
  
 executed on             LinuxIFC date 2020.07.08  00:55:14
 running on    4 total cores
 distrk:  each k-point on    4 cores,    1 groups
 distr:  one band on NCORES_PER_BAND=   1 cores,    4 groups


--------------------------------------------------------------------------------------------------------


 INCAR:
 POTCAR:   PAW Au 04Feb1998                       
 POTCAR:   PAW Au 04Feb1998                       
   VRHFIN =Au: s1d10                                                            
   LEXCH  = CA                                                                  
   EATOM  =   929.4667 eV,   68.3139 Ry                                         
                                                                                
   TITEL  = PAW Au 04Feb1998                                                    
   LULTRA =        F    use ultrasoft PP ?                                      
   IUNSCR =        1    unscreen: 0-lin 1-nonlin 2-no                           
   RPACOR =    2.330    partial core radius                                     
   POMASS =  196.966; ZVAL   =   11.000    mass and valenz                      
   RCORE  =    2.500    outmost cutoff radius                                   
   RWIGS  =    2.840; RWIGS  =    1.503    wigner-seitz radius (au A)           
   ENMAX  =  229.869; ENMIN  =  172.402 eV                                      
   RCLOC  =    1.964    cutoff for local pot                                    
   LCOR   =        T    correct aug charges                                     
   LPAW   =        T    paw PP                                                  
   EAUG   =  356.670                                                            
   DEXC   =    -.020                                                            
   RMAX   =    3.041    core radius for proj-oper                               
   RDEP   =    2.598    core radius for depl-charge                             
   QCUT   =   -4.110; QGAM   =    8.221    optimization parameters              
                                                                                
   Description                                                                  
     l     E      TYP  RCUT    TYP  RCUT                                        
     2   .000     23  2.500                                                     
     2   .000     23  2.500                                                     
     0   .000     23  2.500                                                     
     0   .000     23  2.500                                                     
     1  -.200     23  2.500                                                     
     1   .000     23  2.500                                                     
     3   .000      7   .000                                                     
  local pseudopotential read in
  partial core-charges read in
  atomic valenz-charges read in
  non local Contribution for L=           2  read in
    real space projection operators read in
  non local Contribution for L=           2  read in
    real space projection operators read in
  non local Contribution for L=           0  read in
    real space projection operators read in
  non local Contribution for L=           0  read in
    real space projection operators read in
  non local Contribution for L=           1  read in
    real space projection operators read in
  non local Contribution for L=           1  read in
    real space projection operators read in
    PAW grid and wavefunctions read in
 
   number of l-projection  operators is LMAX  =           6
   number of lm-projection operators is LMMAX =          18
 
 PAW Au 04Feb1998                       :
 energy of atom  1       EATOM= -929.4667
 kinetic energy error for atom=    0.0704 (will be added to EATOM!!)
 
 
 POSCAR: FCC Au Bulk                             
  positions in direct lattice
  No initial velocities read in
 exchange correlation table for  LEXCH =        2
   RHO(1)=    0.500       N(1)  =     2000
   RHO(2)=  100.500       N(2)  =     4000
 


--------------------------------------------------------------------------------------------------------


 ion  position               nearest neighbor table
   1  0.000  0.000  0.000-
 
  LATTYP: Found a face centered cubic cell.
 ALAT       =     3.8000000000
  
  Lattice vectors:
  
 A1 = (   0.0000000000,   1.9000000000,   1.9000000000)
 A2 = (   1.9000000000,   0.0000000000,   1.9000000000)
 A3 = (   1.9000000000,   1.9000000000,   0.0000000000)


Analysis of symmetry for initial positions (statically):
=====================================================================
 Subroutine PRICEL returns:
 Original cell was already a primitive cell.
 

 Routine SETGRP: Setting up the symmetry group for a 
 face centered cubic supercell.


 Subroutine GETGRP returns: Found 48 space group operations
 (whereof 48 operations were pure point group operations)
 out of a pool of 48 trial point group operations.


The static configuration has the point symmetry O_h .


Analysis of symmetry for dynamics (positions and initial velocities):
=====================================================================
 Subroutine PRICEL returns:
 Original cell was already a primitive cell.
 

 Routine SETGRP: Setting up the symmetry group for a 
 face centered cubic supercell.


 Subroutine GETGRP returns: Found 48 space group operations
 (whereof 48 operations were pure point group operations)
 out of a pool of 48 trial point group operations.


The dynamic configuration has the point symmetry O_h .


 Subroutine INISYM returns: Found 48 space group operations
 (whereof 48 operations are pure point group operations),
 and found     1 'primitive' translations

 
 
 KPOINTS: 10x10x10                                

Automatic generation of k-mesh.
Space group operators:
 irot       det(A)        alpha          n_x          n_y          n_z        tau_x        tau_y        tau_z
    1     1.000000     0.000001     1.000000     0.000000     0.000000     0.000000     0.000000     0.000000
    2    -1.000000     0.000001     1.000000     0.000000     0.000000     0.000000     0.000000     0.000000
    3     1.000000   120.000000    -0.577350    -0.577350    -0.577350     0.000000     0.000000     0.000000
    4    -1.000000   120.000000    -0.577350    -0.577350    -0.577350     0.000000     0.000000     0.000000
    5     1.000000   120.000000     0.577350     0.577350     0.577350     0.000000     0.000000     0.000000
    6    -1.000000   120.000000     0.577350     0.577350     0.577350     0.000000     0.000000     0.000000
    7     1.000000    90.000000     0.000000     0.000000    -1.000000     0.000000     0.000000     0.000000
    8    -1.000000    90.000000     0.000000     0.000000    -1.000000     0.000000     0.000000     0.000000
    9     1.000000   180.000000     0.000000     0.707107     0.707107     0.000000     0.000000     0.000000
   10    -1.000000   180.000000     0.000000     0.707107     0.707107     0.000000     0.000000     0.000000
   11     1.000000    90.000000     0.000000     1.000000     0.000000     0.000000     0.000000     0.000000
   12    -1.000000    90.000000     0.000000     1.000000     0.000000     0.000000     0.000000     0.000000
   13     1.000000   180.000000     0.000000     0.000000     1.000000     0.000000     0.000000     0.000000
   14    -1.000000   180.000000     0.000000     0.000000     1.000000     0.000000     0.000000     0.000000
   15     1.000000   120.000000    -0.577350     0.577350     0.577350     0.000000     0.000000     0.000000
   16    -1.000000   120.000000    -0.577350     0.577350     0.577350     0.000000     0.000000     0.000000
   17     1.000000   120.000000    -0.577350     0.577350    -0.577350     0.000000     0.000000     0.000000
   18    -1.000000   120.000000    -0.577350     0.577350    -0.577350     0.000000     0.000000     0.000000
   19     1.000000    90.000000     0.000000     0.000000     1.000000     0.000000     0.000000     0.000000
   20    -1.000000    90.000000     0.000000     0.000000     1.000000     0.000000     0.000000     0.000000
   21     1.000000    90.000000    -1.000000     0.000000     0.000000     0.000000     0.000000     0.000000
   22    -1.000000    90.000000    -1.000000     0.000000     0.000000     0.000000     0.000000     0.000000
   23     1.000000   180.000000     0.707107     0.000000     0.707107     0.000000     0.000000     0.000000
   24    -1.000000   180.000000     0.707107     0.000000     0.707107     0.000000     0.000000     0.000000
   25     1.000000   120.000000     0.577350    -0.577350     0.577350     0.000000     0.000000     0.000000
   26    -1.000000   120.000000     0.577350    -0.577350     0.577350     0.000000     0.000000     0.000000
   27     1.000000   120.000000    -0.577350    -0.577350     0.577350     0.000000     0.000000     0.000000
   28    -1.000000   120.000000    -0.577350    -0.577350     0.577350     0.000000     0.000000     0.000000
   29     1.000000   180.000000     1.000000     0.000000     0.000000     0.000000     0.000000     0.000000
   30    -1.000000   180.000000     1.000000     0.000000     0.000000     0.000000     0.000000     0.000000
   31     1.000000    90.000000     0.000000    -1.000000     0.000000     0.000000     0.000000     0.000000
   32    -1.000000    90.000000     0.000000    -1.000000     0.000000     0.000000     0.000000     0.000000
   33     1.000000   180.000000     0.707107     0.707107     0.000000     0.000000     0.000000     0.000000
   34    -1.000000   180.000000     0.707107     0.707107     0.000000     0.000000     0.000000     0.000000
   35     1.000000    90.000000     1.000000     0.000000     0.000000     0.000000     0.000000     0.000000
   36    -1.000000    90.000000     1.000000     0.000000     0.000000     0.000000     0.000000     0.000000
   37     1.000000   120.000000     0.577350    -0.577350    -0.577350     0.000000     0.000000     0.000000
   38    -1.000000   120.000000     0.577350    -0.577350    -0.577350     0.000000     0.000000     0.000000
   39     1.000000   180.000000     0.000000     1.000000     0.000000     0.000000     0.000000     0.000000
   40    -1.000000   180.000000     0.000000     1.000000     0.000000     0.000000     0.000000     0.000000
   41     1.000000   120.000000     0.577350     0.577350    -0.577350     0.000000     0.000000     0.000000
   42    -1.000000   120.000000     0.577350     0.577350    -0.577350     0.000000     0.000000     0.000000
   43     1.000000   180.000000     0.000000    -0.707107     0.707107     0.000000     0.000000     0.000000
   44    -1.000000   180.000000     0.000000    -0.707107     0.707107     0.000000     0.000000     0.000000
   45     1.000000   180.000000     0.707107    -0.707107     0.000000     0.000000     0.000000     0.000000
   46    -1.000000   180.000000     0.707107    -0.707107     0.000000     0.000000     0.000000     0.000000
   47     1.000000   180.000000     0.707107     0.000000    -0.707107     0.000000     0.000000     0.000000
   48    -1.000000   180.000000     0.707107     0.000000    -0.707107     0.000000     0.000000     0.000000
 
 Subroutine IBZKPT returns following result:
 ===========================================
 
 Found    110 irreducible k-points:
 
 Following reciprocal coordinates:
            Coordinates               Weight
  0.050000  0.050000  0.050000     96.000000
  0.150000  0.050000  0.050000    288.000000
  0.250000  0.050000  0.050000    288.000000
  0.350000  0.050000  0.050000    288.000000
  0.450000  0.050000  0.050000    288.000000
 -0.450000  0.050000  0.050000    288.000000
 -0.350000  0.050000  0.050000    288.000000
 -0.250000  0.050000  0.050000    288.000000
 -0.150000  0.050000  0.050000    288.000000
 -0.050000  0.050000  0.050000    288.000000
  0.150000  0.150000  0.050000    288.000000
  0.250000  0.150000  0.050000    576.000000
  0.350000  0.150000  0.050000    576.000000
  0.450000  0.150000  0.050000    576.000000
 -0.450000  0.150000  0.050000    576.000000
 -0.350000  0.150000  0.050000    576.000000
 -0.250000  0.150000  0.050000    576.000000
 -0.150000  0.150000  0.050000    576.000000
 -0.050000  0.150000  0.050000    576.000000
  0.250000  0.250000  0.050000    288.000000
  0.350000  0.250000  0.050000    576.000000
  0.450000  0.250000  0.050000    576.000000
 -0.450000  0.250000  0.050000    576.000000
 -0.350000  0.250000  0.050000    576.000000
 -0.250000  0.250000  0.050000    576.000000
 -0.150000  0.250000  0.050000    576.000000
 -0.050000  0.250000  0.050000    576.000000
  0.350000  0.350000  0.050000    288.000000
  0.450000  0.350000  0.050000    576.000000
 -0.450000  0.350000  0.050000    576.000000
 -0.350000  0.350000  0.050000    576.000000
 -0.250000  0.350000  0.050000    576.000000
 -0.150000  0.350000  0.050000    576.000000
 -0.050000  0.350000  0.050000    576.000000
  0.450000  0.450000  0.050000    288.000000
 -0.450000  0.450000  0.050000    576.000000
 -0.350000  0.450000  0.050000    576.000000
 -0.250000  0.450000  0.050000    576.000000
 -0.150000  0.450000  0.050000    576.000000
 -0.050000  0.450000  0.050000    576.000000
 -0.450000 -0.450000  0.050000    288.000000
 -0.350000 -0.450000  0.050000    576.000000
 -0.250000 -0.450000  0.050000    576.000000
 -0.150000 -0.450000  0.050000    576.000000
 -0.350000 -0.350000  0.050000    288.000000
 -0.250000 -0.350000  0.050000    576.000000
 -0.150000 -0.350000  0.050000    576.000000
 -0.250000 -0.250000  0.050000    288.000000
 -0.150000 -0.250000  0.050000    576.000000
 -0.150000 -0.150000  0.050000    288.000000
  0.150000  0.150000  0.150000     96.000000
  0.250000  0.150000  0.150000    288.000000
  0.350000  0.150000  0.150000    288.000000
  0.450000  0.150000  0.150000    288.000000
 -0.450000  0.150000  0.150000    288.000000
 -0.350000  0.150000  0.150000    288.000000
 -0.250000  0.150000  0.150000    288.000000
 -0.150000  0.150000  0.150000    288.000000
  0.250000  0.250000  0.150000    288.000000
  0.350000  0.250000  0.150000    576.000000
  0.450000  0.250000  0.150000    576.000000
 -0.450000  0.250000  0.150000    576.000000
 -0.350000  0.250000  0.150000    576.000000
 -0.250000  0.250000  0.150000    576.000000
 -0.150000  0.250000  0.150000    576.000000
  0.350000  0.350000  0.150000    288.000000
  0.450000  0.350000  0.150000    576.000000
 -0.450000  0.350000  0.150000    576.000000
 -0.350000  0.350000  0.150000    576.000000
 -0.250000  0.350000  0.150000    576.000000
 -0.150000  0.350000  0.150000    576.000000
  0.450000  0.450000  0.150000    288.000000
 -0.450000  0.450000  0.150000    576.000000
 -0.350000  0.450000  0.150000    576.000000
 -0.250000  0.450000  0.150000    576.000000
 -0.150000  0.450000  0.150000    576.000000
 -0.450000 -0.450000  0.150000    288.000000
 -0.350000 -0.450000  0.150000    576.000000
 -0.250000 -0.450000  0.150000    576.000000
 -0.350000 -0.350000  0.150000    288.000000
 -0.250000 -0.350000  0.150000    576.000000
 -0.250000 -0.250000  0.150000    288.000000
  0.250000  0.250000  0.250000     96.000000
  0.350000  0.250000  0.250000    288.000000
  0.450000  0.250000  0.250000    288.000000
 -0.450000  0.250000  0.250000    288.000000
 -0.350000  0.250000  0.250000    288.000000
 -0.250000  0.250000  0.250000    288.000000
  0.350000  0.350000  0.250000    288.000000
  0.450000  0.350000  0.250000    576.000000
 -0.450000  0.350000  0.250000    576.000000
 -0.350000  0.350000  0.250000    576.000000
 -0.250000  0.350000  0.250000    576.000000
  0.450000  0.450000  0.250000    288.000000
 -0.450000  0.450000  0.250000    576.000000
 -0.350000  0.450000  0.250000    576.000000
 -0.250000  0.450000  0.250000    576.000000
 -0.450000 -0.450000  0.250000    288.000000
 -0.350000 -0.450000  0.250000    576.000000
 -0.350000 -0.350000  0.250000    288.000000
  0.350000  0.350000  0.350000     96.000000
  0.450000  0.350000  0.350000    288.000000
 -0.450000  0.350000  0.350000    288.000000
 -0.350000  0.350000  0.350000    288.000000
  0.450000  0.450000  0.350000    288.000000
 -0.450000  0.450000  0.350000    576.000000
 -0.350000  0.450000  0.350000    576.000000
 -0.450000 -0.450000  0.350000    288.000000
  0.450000  0.450000  0.450000     96.000000
 -0.450000  0.450000  0.450000    288.000000
 
 Following cartesian coordinates:
            Coordinates               Weight
  0.050000  0.050000  0.050000     96.000000
 -0.050000  0.150000  0.150000    288.000000
 -0.150000  0.250000  0.250000    288.000000
 -0.250000  0.350000  0.350000    288.000000
 -0.350000  0.450000  0.450000    288.000000
  0.550000 -0.450000 -0.450000    288.000000
  0.450000 -0.350000 -0.350000    288.000000
  0.350000 -0.250000 -0.250000    288.000000
  0.250000 -0.150000 -0.150000    288.000000
  0.150000 -0.050000 -0.050000    288.000000
  0.050000  0.050000  0.250000    288.000000
 -0.050000  0.150000  0.350000    576.000000
 -0.150000  0.250000  0.450000    576.000000
 -0.250000  0.350000  0.550000    576.000000
  0.650000 -0.550000 -0.350000    576.000000
  0.550000 -0.450000 -0.250000    576.000000
  0.450000 -0.350000 -0.150000    576.000000
  0.350000 -0.250000 -0.050000    576.000000
  0.250000 -0.150000  0.050000    576.000000
  0.050000  0.050000  0.450000    288.000000
 -0.050000  0.150000  0.550000    576.000000
 -0.150000  0.250000  0.650000    576.000000
  0.750000 -0.650000 -0.250000    576.000000
  0.650000 -0.550000 -0.150000    576.000000
  0.550000 -0.450000 -0.050000    576.000000
  0.450000 -0.350000  0.050000    576.000000
  0.350000 -0.250000  0.150000    576.000000
  0.050000  0.050000  0.650000    288.000000
 -0.050000  0.150000  0.750000    576.000000
  0.850000 -0.750000 -0.150000    576.000000
  0.750000 -0.650000 -0.050000    576.000000
  0.650000 -0.550000  0.050000    576.000000
  0.550000 -0.450000  0.150000    576.000000
  0.450000 -0.350000  0.250000    576.000000
  0.050000  0.050000  0.850000    288.000000
  0.950000 -0.850000 -0.050000    576.000000
  0.850000 -0.750000  0.050000    576.000000
  0.750000 -0.650000  0.150000    576.000000
  0.650000 -0.550000  0.250000    576.000000
  0.550000 -0.450000  0.350000    576.000000
  0.050000  0.050000 -0.950000    288.000000
 -0.050000  0.150000 -0.850000    576.000000
 -0.150000  0.250000 -0.750000    576.000000
 -0.250000  0.350000 -0.650000    576.000000
  0.050000  0.050000 -0.750000    288.000000
 -0.050000  0.150000 -0.650000    576.000000
 -0.150000  0.250000 -0.550000    576.000000
  0.050000  0.050000 -0.550000    288.000000
 -0.050000  0.150000 -0.450000    576.000000
  0.050000  0.050000 -0.350000    288.000000
  0.150000  0.150000  0.150000     96.000000
  0.050000  0.250000  0.250000    288.000000
 -0.050000  0.350000  0.350000    288.000000
 -0.150000  0.450000  0.450000    288.000000
  0.750000 -0.450000 -0.450000    288.000000
  0.650000 -0.350000 -0.350000    288.000000
  0.550000 -0.250000 -0.250000    288.000000
  0.450000 -0.150000 -0.150000    288.000000
  0.150000  0.150000  0.350000    288.000000
  0.050000  0.250000  0.450000    576.000000
 -0.050000  0.350000  0.550000    576.000000
  0.850000 -0.550000 -0.350000    576.000000
  0.750000 -0.450000 -0.250000    576.000000
  0.650000 -0.350000 -0.150000    576.000000
  0.550000 -0.250000 -0.050000    576.000000
  0.150000  0.150000  0.550000    288.000000
  0.050000  0.250000  0.650000    576.000000
  0.950000 -0.650000 -0.250000    576.000000
  0.850000 -0.550000 -0.150000    576.000000
  0.750000 -0.450000 -0.050000    576.000000
  0.650000 -0.350000  0.050000    576.000000
  0.150000  0.150000  0.750000    288.000000
  1.050000 -0.750000 -0.150000    576.000000
  0.950000 -0.650000 -0.050000    576.000000
  0.850000 -0.550000  0.050000    576.000000
  0.750000 -0.450000  0.150000    576.000000
  0.150000  0.150000 -1.050000    288.000000
  0.050000  0.250000 -0.950000    576.000000
 -0.050000  0.350000 -0.850000    576.000000
  0.150000  0.150000 -0.850000    288.000000
  0.050000  0.250000 -0.750000    576.000000
  0.150000  0.150000 -0.650000    288.000000
  0.250000  0.250000  0.250000     96.000000
  0.150000  0.350000  0.350000    288.000000
  0.050000  0.450000  0.450000    288.000000
  0.950000 -0.450000 -0.450000    288.000000
  0.850000 -0.350000 -0.350000    288.000000
  0.750000 -0.250000 -0.250000    288.000000
  0.250000  0.250000  0.450000    288.000000
  0.150000  0.350000  0.550000    576.000000
  1.050000 -0.550000 -0.350000    576.000000
  0.950000 -0.450000 -0.250000    576.000000
  0.850000 -0.350000 -0.150000    576.000000
  0.250000  0.250000  0.650000    288.000000
  1.150000 -0.650000 -0.250000    576.000000
  1.050000 -0.550000 -0.150000    576.000000
  0.950000 -0.450000 -0.050000    576.000000
  0.250000  0.250000 -1.150000    288.000000
  0.150000  0.350000 -1.050000    576.000000
  0.250000  0.250000 -0.950000    288.000000
  0.350000  0.350000  0.350000     96.000000
  0.250000  0.450000  0.450000    288.000000
  1.150000 -0.450000 -0.450000    288.000000
  1.050000 -0.350000 -0.350000    288.000000
  0.350000  0.350000  0.550000    288.000000
  1.250000 -0.550000 -0.350000    576.000000
  1.150000 -0.450000 -0.250000    576.000000
  0.350000  0.350000 -1.250000    288.000000
  0.450000  0.450000  0.450000     96.000000
  1.350000 -0.450000 -0.450000    288.000000
 


--------------------------------------------------------------------------------------------------------




 Dimension of arrays:
   k-points           NKPTS =    110   k-points in BZ     NKDIM =    110   number of bands    NBANDS=     12
   number of dos      NEDOS =    301   number of ions     NIONS =      1
   non local maximal  LDIM  =      6   non local SUM 2l+1 LMDIM =     18
   total plane-waves  NPLWV =   1000
   max r-space proj   IRMAX =      1   max aug-charges    IRDMAX=   4657
   dimension x,y,z NGX =    10 NGY =   10 NGZ =   10
   dimension x,y,z NGXF=    20 NGYF=   20 NGZF=   20
   support grid    NGXF=    20 NGYF=   20 NGZF=   20
   ions per type =               1
   NGX,Y,Z   is equivalent  to a cutoff of   6.19,  6.19,  6.19 a.u.
   NGXF,Y,Z  is equivalent  to a cutoff of  12.37, 12.37, 12.37 a.u.

 SYSTEM =  FCC Au                                  
 POSCAR =  FCC Au Bulk                             

 Startparameter for this run:
   NWRITE =      2    write-flag & timer
   PREC   = normal    normal or accurate (medium, high low for compatibility)
   ISTART =      1    job   : 0-new  1-cont  2-samecut
   ICHARG =      0    charge: 1-file 2-atom 10-const
   ISPIN  =      1    spin polarized calculation?
   LNONCOLLINEAR =      F non collinear calculations
   LSORBIT =      F    spin-orbit coupling
   INIWAV =      1    electr: 0-lowe 1-rand  2-diag
   LASPH  =      F    aspherical Exc in radial PAW
   METAGGA=      F    non-selfconsistent MetaGGA calc.

 Electronic Relaxation 1
   ENCUT  =  230.0 eV  16.90 Ry    4.11 a.u.   3.32  3.32  3.32*2*pi/ulx,y,z
   ENINI  =  230.0     initial cutoff
   ENAUG  =  356.7 eV  augmentation charge cutoff
   NELM   =     60;   NELMIN=  2; NELMDL=  0     # of ELM steps 
   EDIFF  = 0.1E-03   stopping-criterion for ELM
   LREAL  =      F    real-space projection
   NLSPLINE    = F    spline interpolate recip. space projectors
   LCOMPAT=      F    compatible to vasp.4.4
   GGA_COMPAT  = T    GGA compatible to vasp.4.4-vasp.4.6
   LMAXPAW     = -100 max onsite density
   LMAXMIX     =    2 max onsite mixed and CHGCAR
   VOSKOWN=      0    Vosko Wilk Nusair interpolation
   ROPT   =    0.00000
 Ionic relaxation
   EDIFFG = 0.1E-02   stopping-criterion for IOM
   NSW    =      0    number of steps for IOM
   NBLOCK =      1;   KBLOCK =      1    inner block; outer block 
   IBRION =     -1    ionic relax: 0-MD 1-quasi-New 2-CG
   NFREE  =      0    steps in history (QN), initial steepest desc. (CG)
   ISIF   =      2    stress and relaxation
   IWAVPR =     10    prediction:  0-non 1-charg 2-wave 3-comb
   ISYM   =      2    0-nonsym 1-usesym 2-fastsym
   LCORR  =      T    Harris-Foulkes like correction to forces

   POTIM  = 0.5000    time-step for ionic-motion
   TEIN   =    0.0    initial temperature
   TEBEG  =    0.0;   TEEND  =   0.0 temperature during run
   SMASS  =  -3.00    Nose mass-parameter (am)
   estimated Nose-frequenzy (Omega)   =  0.10E-29 period in steps =****** mass=  -0.165E-27a.u.
   SCALEE = 1.0000    scale energy and forces
   NPACO  =    256;   APACO  = 16.0  distance and # of slots for P.C.
   PSTRESS=    0.0 pullay stress

  Mass of Ions in am
   POMASS = 196.97
  Ionic Valenz
   ZVAL   =  11.00
  Atomic Wigner-Seitz radii
   RWIGS  =  -1.00
  virtual crystal weights 
   VCA    =   1.00
   NELECT =      11.0000    total number of electrons
   NUPDOWN=      -1.0000    fix difference up-down

 DOS related values:
   EMIN   =  10.00;   EMAX   =-10.00  energy-range for DOS
   EFERMI =   0.00
   ISMEAR =     1;   SIGMA  =   0.20  broadening in eV -4-tet -1-fermi 0-gaus

 Electronic relaxation 2 (details)
   IALGO  =     38    algorithm
   LDIAG  =      T    sub-space diagonalisation (order eigenvalues)
   LSUBROT=      F    optimize rotation matrix (better conditioning)
   TURBO    =      0    0=normal 1=particle mesh
   IRESTART =      0    0=no restart 2=restart with 2 vectors
   NREBOOT  =      0    no. of reboots
   NMIN     =      0    reboot dimension
   EREF     =   0.00    reference energy to select bands
   IMIX   =      4    mixing-type and parameters
     AMIX     =   0.40;   BMIX     =  1.00
     AMIX_MAG =   1.60;   BMIX_MAG =  1.00
     AMIN     =   0.10
     WC   =   100.;   INIMIX=   1;  MIXPRE=   1;  MAXMIX= -45

 Intra band minimization:
   WEIMIN = 0.0000     energy-eigenvalue tresh-hold
   EBREAK =  0.21E-05  absolut break condition
   DEPER  =   0.30     relativ break condition  

   TIME   =   0.40     timestep for ELM

  volume/ion in A,a.u.               =      13.72        92.57
  Fermi-wavevector in a.u.,A,eV,Ry     =   1.520928  2.874138 31.473316  2.313223
  Thomas-Fermi vector in A             =   2.629713
 
 Write flags
   LWAVE        =      T    write WAVECAR
   LDOWNSAMPLE  =      F    k-point downsampling of WAVECAR
   LCHARG       =      T    write CHGCAR
   LVTOT        =      F    write LOCPOT, total local potential
   LVHAR        =      F    write LOCPOT, Hartree potential only
   LELF         =      F    write electronic localiz. function (ELF)
   LORBIT       =      0    0 simple, 1 ext, 2 COOP (PROOUT), +10 PAW based schemes


 Dipole corrections
   LMONO  =      F    monopole corrections only (constant potential shift)
   LDIPOL =      F    correct potential (dipole corrections)
   IDIPOL =      0    1-x, 2-y, 3-z, 4-all directions 
   EPSILON=  1.0000000 bulk dielectric constant

 Exchange correlation treatment:
   GGA     =    --    GGA type
   LEXCH   =     2    internal setting for exchange type
   VOSKOWN=      0    Vosko Wilk Nusair interpolation
   LHFCALC =     F    Hartree Fock is set to
   LHFONE  =     F    Hartree Fock one center treatment
   AEXX    =    0.0000 exact exchange contribution

 Linear response parameters
   LEPSILON=     F    determine dielectric tensor
   LRPA    =     F    only Hartree local field effects (RPA)
   LNABLA  =     F    use nabla operator in PAW spheres
   LVEL    =     F    velocity operator in full k-point grid
   LINTERFAST=   F  fast interpolation
   KINTER  =     0    interpolate to denser k-point grid
   CSHIFT  =0.1000    complex shift for real part using Kramers Kronig
   OMEGAMAX=  -1.0    maximum frequency
   DEG_THRESHOLD= 0.2000000E-02 threshold for treating states as degnerate
   RTIME   =   -0.100 relaxation time in fs
  (WPLASMAI=    0.000 imaginary part of plasma frequency in eV, 0.658/RTIME)
   DFIELD  = 0.0000000 0.0000000 0.0000000 field for delta impulse in time
 
 Orbital magnetization related:
   ORBITALMAG=     F  switch on orbital magnetization
   LCHIMAG   =     F  perturbation theory with respect to B field
   DQ        =  0.001000  dq finite difference perturbation B field
   LLRAUG    =     F  two centre corrections for induced B field



--------------------------------------------------------------------------------------------------------


 Static calculation
 charge density and potential will be updated during run
 non-spin polarized calculation
 Variant of blocked Davidson
 Davidson routine will perform the subspace rotation
 perform sub-space diagonalisation
    after iterative eigenvector-optimisation
 modified Broyden-mixing scheme, WC =      100.0
 initial mixing is a Kerker type mixing with AMIX =  0.4000 and BMIX =      1.0000
 Hartree-type preconditioning will be used
 using additional bands            6
 reciprocal scheme for non local part
 use partial core corrections
 calculate Harris-corrections to forces 
   (improved forces if not selfconsistent)
 use of overlap-Matrix (Vanderbilt PP)
 Methfessel and Paxton  Order N= 1 SIGMA  =   0.20


--------------------------------------------------------------------------------------------------------


  energy-cutoff  :      230.00
  volume of cell :       13.72
      direct lattice vectors                 reciprocal lattice vectors
     0.000000000  1.900000000  1.900000000    -0.263157895  0.263157895  0.263157895
     1.900000000  0.000000000  1.900000000     0.263157895 -0.263157895  0.263157895
     1.900000000  1.900000000  0.000000000     0.263157895  0.263157895 -0.263157895

  length of vectors
     2.687005769  2.687005769  2.687005769     0.455802844  0.455802844  0.455802844


 
 old parameters found on file WAVECAR:
  energy-cutoff  :      287.34
  volume of cell :       13.72
      direct lattice vectors                 reciprocal lattice vectors
     0.000000000  1.900000000  1.900000000    -0.263157895  0.263157895  0.263157895
     1.900000000  0.000000000  1.900000000     0.263157895 -0.263157895  0.263157895
     1.900000000  1.900000000  0.000000000     0.263157895  0.263157895 -0.263157895

  length of vectors

 
 k-points in units of 2pi/SCALE and weight: 10x10x10                                
   0.05000000  0.05000000  0.05000000       0.002
  -0.05000000  0.15000000  0.15000000       0.006
  -0.15000000  0.25000000  0.25000000       0.006
  -0.25000000  0.35000000  0.35000000       0.006
  -0.35000000  0.45000000  0.45000000       0.006
   0.55000000 -0.45000000 -0.45000000       0.006
   0.45000000 -0.35000000 -0.35000000       0.006
   0.35000000 -0.25000000 -0.25000000       0.006
   0.25000000 -0.15000000 -0.15000000       0.006
   0.15000000 -0.05000000 -0.05000000       0.006
   0.05000000  0.05000000  0.25000000       0.006
  -0.05000000  0.15000000  0.35000000       0.012
  -0.15000000  0.25000000  0.45000000       0.012
  -0.25000000  0.35000000  0.55000000       0.012
   0.65000000 -0.55000000 -0.35000000       0.012
   0.55000000 -0.45000000 -0.25000000       0.012
   0.45000000 -0.35000000 -0.15000000       0.012
   0.35000000 -0.25000000 -0.05000000       0.012
   0.25000000 -0.15000000  0.05000000       0.012
   0.05000000  0.05000000  0.45000000       0.006
  -0.05000000  0.15000000  0.55000000       0.012
  -0.15000000  0.25000000  0.65000000       0.012
   0.75000000 -0.65000000 -0.25000000       0.012
   0.65000000 -0.55000000 -0.15000000       0.012
   0.55000000 -0.45000000 -0.05000000       0.012
   0.45000000 -0.35000000  0.05000000       0.012
   0.35000000 -0.25000000  0.15000000       0.012
   0.05000000  0.05000000  0.65000000       0.006
  -0.05000000  0.15000000  0.75000000       0.012
   0.85000000 -0.75000000 -0.15000000       0.012
   0.75000000 -0.65000000 -0.05000000       0.012
   0.65000000 -0.55000000  0.05000000       0.012
   0.55000000 -0.45000000  0.15000000       0.012
   0.45000000 -0.35000000  0.25000000       0.012
   0.05000000  0.05000000  0.85000000       0.006
   0.95000000 -0.85000000 -0.05000000       0.012
   0.85000000 -0.75000000  0.05000000       0.012
   0.75000000 -0.65000000  0.15000000       0.012
   0.65000000 -0.55000000  0.25000000       0.012
   0.55000000 -0.45000000  0.35000000       0.012
   0.05000000  0.05000000 -0.95000000       0.006
  -0.05000000  0.15000000 -0.85000000       0.012
  -0.15000000  0.25000000 -0.75000000       0.012
  -0.25000000  0.35000000 -0.65000000       0.012
   0.05000000  0.05000000 -0.75000000       0.006
  -0.05000000  0.15000000 -0.65000000       0.012
  -0.15000000  0.25000000 -0.55000000       0.012
   0.05000000  0.05000000 -0.55000000       0.006
  -0.05000000  0.15000000 -0.45000000       0.012
   0.05000000  0.05000000 -0.35000000       0.006
   0.15000000  0.15000000  0.15000000       0.002
   0.05000000  0.25000000  0.25000000       0.006
  -0.05000000  0.35000000  0.35000000       0.006
  -0.15000000  0.45000000  0.45000000       0.006
   0.75000000 -0.45000000 -0.45000000       0.006
   0.65000000 -0.35000000 -0.35000000       0.006
   0.55000000 -0.25000000 -0.25000000       0.006
   0.45000000 -0.15000000 -0.15000000       0.006
   0.15000000  0.15000000  0.35000000       0.006
   0.05000000  0.25000000  0.45000000       0.012
  -0.05000000  0.35000000  0.55000000       0.012
   0.85000000 -0.55000000 -0.35000000       0.012
   0.75000000 -0.45000000 -0.25000000       0.012
   0.65000000 -0.35000000 -0.15000000       0.012
   0.55000000 -0.25000000 -0.05000000       0.012
   0.15000000  0.15000000  0.55000000       0.006
   0.05000000  0.25000000  0.65000000       0.012
   0.95000000 -0.65000000 -0.25000000       0.012
   0.85000000 -0.55000000 -0.15000000       0.012
   0.75000000 -0.45000000 -0.05000000       0.012
   0.65000000 -0.35000000  0.05000000       0.012
   0.15000000  0.15000000  0.75000000       0.006
   1.05000000 -0.75000000 -0.15000000       0.012
   0.95000000 -0.65000000 -0.05000000       0.012
   0.85000000 -0.55000000  0.05000000       0.012
   0.75000000 -0.45000000  0.15000000       0.012
   0.15000000  0.15000000 -1.05000000       0.006
   0.05000000  0.25000000 -0.95000000       0.012
  -0.05000000  0.35000000 -0.85000000       0.012
   0.15000000  0.15000000 -0.85000000       0.006
   0.05000000  0.25000000 -0.75000000       0.012
   0.15000000  0.15000000 -0.65000000       0.006
   0.25000000  0.25000000  0.25000000       0.002
   0.15000000  0.35000000  0.35000000       0.006
   0.05000000  0.45000000  0.45000000       0.006
   0.95000000 -0.45000000 -0.45000000       0.006
   0.85000000 -0.35000000 -0.35000000       0.006
   0.75000000 -0.25000000 -0.25000000       0.006
   0.25000000  0.25000000  0.45000000       0.006
   0.15000000  0.35000000  0.55000000       0.012
   1.05000000 -0.55000000 -0.35000000       0.012
   0.95000000 -0.45000000 -0.25000000       0.012
   0.85000000 -0.35000000 -0.15000000       0.012
   0.25000000  0.25000000  0.65000000       0.006
   1.15000000 -0.65000000 -0.25000000       0.012
   1.05000000 -0.55000000 -0.15000000       0.012
   0.95000000 -0.45000000 -0.05000000       0.012
   0.25000000  0.25000000 -1.15000000       0.006
   0.15000000  0.35000000 -1.05000000       0.012
   0.25000000  0.25000000 -0.95000000       0.006
   0.35000000  0.35000000  0.35000000       0.002
   0.25000000  0.45000000  0.45000000       0.006
   1.15000000 -0.45000000 -0.45000000       0.006
   1.05000000 -0.35000000 -0.35000000       0.006
   0.35000000  0.35000000  0.55000000       0.006
   1.25000000 -0.55000000 -0.35000000       0.012
   1.15000000 -0.45000000 -0.25000000       0.012
   0.35000000  0.35000000 -1.25000000       0.006
   0.45000000  0.45000000  0.45000000       0.002
   1.35000000 -0.45000000 -0.45000000       0.006
 
 k-points in reciprocal lattice and weights: 10x10x10                                
   0.05000000  0.05000000  0.05000000       0.002
   0.15000000  0.05000000  0.05000000       0.006
   0.25000000  0.05000000  0.05000000       0.006
   0.35000000  0.05000000  0.05000000       0.006
   0.45000000  0.05000000  0.05000000       0.006
  -0.45000000  0.05000000  0.05000000       0.006
  -0.35000000  0.05000000  0.05000000       0.006
  -0.25000000  0.05000000  0.05000000       0.006
  -0.15000000  0.05000000  0.05000000       0.006
  -0.05000000  0.05000000  0.05000000       0.006
   0.15000000  0.15000000  0.05000000       0.006
   0.25000000  0.15000000  0.05000000       0.012
   0.35000000  0.15000000  0.05000000       0.012
   0.45000000  0.15000000  0.05000000       0.012
  -0.45000000  0.15000000  0.05000000       0.012
  -0.35000000  0.15000000  0.05000000       0.012
  -0.25000000  0.15000000  0.05000000       0.012
  -0.15000000  0.15000000  0.05000000       0.012
  -0.05000000  0.15000000  0.05000000       0.012
   0.25000000  0.25000000  0.05000000       0.006
   0.35000000  0.25000000  0.05000000       0.012
   0.45000000  0.25000000  0.05000000       0.012
  -0.45000000  0.25000000  0.05000000       0.012
  -0.35000000  0.25000000  0.05000000       0.012
  -0.25000000  0.25000000  0.05000000       0.012
  -0.15000000  0.25000000  0.05000000       0.012
  -0.05000000  0.25000000  0.05000000       0.012
   0.35000000  0.35000000  0.05000000       0.006
   0.45000000  0.35000000  0.05000000       0.012
  -0.45000000  0.35000000  0.05000000       0.012
  -0.35000000  0.35000000  0.05000000       0.012
  -0.25000000  0.35000000  0.05000000       0.012
  -0.15000000  0.35000000  0.05000000       0.012
  -0.05000000  0.35000000  0.05000000       0.012
   0.45000000  0.45000000  0.05000000       0.006
  -0.45000000  0.45000000  0.05000000       0.012
  -0.35000000  0.45000000  0.05000000       0.012
  -0.25000000  0.45000000  0.05000000       0.012
  -0.15000000  0.45000000  0.05000000       0.012
  -0.05000000  0.45000000  0.05000000       0.012
  -0.45000000 -0.45000000  0.05000000       0.006
  -0.35000000 -0.45000000  0.05000000       0.012
  -0.25000000 -0.45000000  0.05000000       0.012
  -0.15000000 -0.45000000  0.05000000       0.012
  -0.35000000 -0.35000000  0.05000000       0.006
  -0.25000000 -0.35000000  0.05000000       0.012
  -0.15000000 -0.35000000  0.05000000       0.012
  -0.25000000 -0.25000000  0.05000000       0.006
  -0.15000000 -0.25000000  0.05000000       0.012
  -0.15000000 -0.15000000  0.05000000       0.006
   0.15000000  0.15000000  0.15000000       0.002
   0.25000000  0.15000000  0.15000000       0.006
   0.35000000  0.15000000  0.15000000       0.006
   0.45000000  0.15000000  0.15000000       0.006
  -0.45000000  0.15000000  0.15000000       0.006
  -0.35000000  0.15000000  0.15000000       0.006
  -0.25000000  0.15000000  0.15000000       0.006
  -0.15000000  0.15000000  0.15000000       0.006
   0.25000000  0.25000000  0.15000000       0.006
   0.35000000  0.25000000  0.15000000       0.012
   0.45000000  0.25000000  0.15000000       0.012
  -0.45000000  0.25000000  0.15000000       0.012
  -0.35000000  0.25000000  0.15000000       0.012
  -0.25000000  0.25000000  0.15000000       0.012
  -0.15000000  0.25000000  0.15000000       0.012
   0.35000000  0.35000000  0.15000000       0.006
   0.45000000  0.35000000  0.15000000       0.012
  -0.45000000  0.35000000  0.15000000       0.012
  -0.35000000  0.35000000  0.15000000       0.012
  -0.25000000  0.35000000  0.15000000       0.012
  -0.15000000  0.35000000  0.15000000       0.012
   0.45000000  0.45000000  0.15000000       0.006
  -0.45000000  0.45000000  0.15000000       0.012
  -0.35000000  0.45000000  0.15000000       0.012
  -0.25000000  0.45000000  0.15000000       0.012
  -0.15000000  0.45000000  0.15000000       0.012
  -0.45000000 -0.45000000  0.15000000       0.006
  -0.35000000 -0.45000000  0.15000000       0.012
  -0.25000000 -0.45000000  0.15000000       0.012
  -0.35000000 -0.35000000  0.15000000       0.006
  -0.25000000 -0.35000000  0.15000000       0.012
  -0.25000000 -0.25000000  0.15000000       0.006
   0.25000000  0.25000000  0.25000000       0.002
   0.35000000  0.25000000  0.25000000       0.006
   0.45000000  0.25000000  0.25000000       0.006
  -0.45000000  0.25000000  0.25000000       0.006
  -0.35000000  0.25000000  0.25000000       0.006
  -0.25000000  0.25000000  0.25000000       0.006
   0.35000000  0.35000000  0.25000000       0.006
   0.45000000  0.35000000  0.25000000       0.012
  -0.45000000  0.35000000  0.25000000       0.012
  -0.35000000  0.35000000  0.25000000       0.012
  -0.25000000  0.35000000  0.25000000       0.012
   0.45000000  0.45000000  0.25000000       0.006
  -0.45000000  0.45000000  0.25000000       0.012
  -0.35000000  0.45000000  0.25000000       0.012
  -0.25000000  0.45000000  0.25000000       0.012
  -0.45000000 -0.45000000  0.25000000       0.006
  -0.35000000 -0.45000000  0.25000000       0.012
  -0.35000000 -0.35000000  0.25000000       0.006
   0.35000000  0.35000000  0.35000000       0.002
   0.45000000  0.35000000  0.35000000       0.006
  -0.45000000  0.35000000  0.35000000       0.006
  -0.35000000  0.35000000  0.35000000       0.006
   0.45000000  0.45000000  0.35000000       0.006
  -0.45000000  0.45000000  0.35000000       0.012
  -0.35000000  0.45000000  0.35000000       0.012
  -0.45000000 -0.45000000  0.35000000       0.006
   0.45000000  0.45000000  0.45000000       0.002
  -0.45000000  0.45000000  0.45000000       0.006
 
 position of ions in fractional coordinates (direct lattice) 
   0.00000000  0.00000000  0.00000000
 
 position of ions in cartesian coordinates  (Angst):
   0.00000000  0.00000000  0.00000000
 


--------------------------------------------------------------------------------------------------------


 k-point  1 :   0.0500 0.0500 0.0500  plane waves:     113
 k-point  2 :   0.1500 0.0500 0.0500  plane waves:     115
 k-point  3 :   0.2500 0.0500 0.0500  plane waves:     111
 k-point  4 :   0.3500 0.0500 0.0500  plane waves:     107
 k-point  5 :   0.4500 0.0500 0.0500  plane waves:     109
 k-point  6 :  -0.4500 0.0500 0.0500  plane waves:     108
 k-point  7 :  -0.3500 0.0500 0.0500  plane waves:     110
 k-point  8 :  -0.2500 0.0500 0.0500  plane waves:     109
 k-point  9 :  -0.1500 0.0500 0.0500  plane waves:     112
 k-point 10 :  -0.0500 0.0500 0.0500  plane waves:     113
 k-point 11 :   0.1500 0.1500 0.0500  plane waves:     114
 k-point 12 :   0.2500 0.1500 0.0500  plane waves:     113
 k-point 13 :   0.3500 0.1500 0.0500  plane waves:     107
 k-point 14 :   0.4500 0.1500 0.0500  plane waves:     109
 k-point 15 :  -0.4500 0.1500 0.0500  plane waves:     110
 k-point 16 :  -0.3500 0.1500 0.0500  plane waves:     107
 k-point 17 :  -0.2500 0.1500 0.0500  plane waves:     107
 k-point 18 :  -0.1500 0.1500 0.0500  plane waves:     110
 k-point 19 :  -0.0500 0.1500 0.0500  plane waves:     113
 k-point 20 :   0.2500 0.2500 0.0500  plane waves:     109
 k-point 21 :   0.3500 0.2500 0.0500  plane waves:     112
 k-point 22 :   0.4500 0.2500 0.0500  plane waves:     111
 k-point 23 :  -0.4500 0.2500 0.0500  plane waves:     109
 k-point 24 :  -0.3500 0.2500 0.0500  plane waves:     108
 k-point 25 :  -0.2500 0.2500 0.0500  plane waves:     109
 k-point 26 :  -0.1500 0.2500 0.0500  plane waves:     107
 k-point 27 :  -0.0500 0.2500 0.0500  plane waves:     108
 k-point 28 :   0.3500 0.3500 0.0500  plane waves:     111
 k-point 29 :   0.4500 0.3500 0.0500  plane waves:     109
 k-point 30 :  -0.4500 0.3500 0.0500  plane waves:     105
 k-point 31 :  -0.3500 0.3500 0.0500  plane waves:     106
 k-point 32 :  -0.2500 0.3500 0.0500  plane waves:     107
 k-point 33 :  -0.1500 0.3500 0.0500  plane waves:     108
 k-point 34 :  -0.0500 0.3500 0.0500  plane waves:     107
 k-point 35 :   0.4500 0.4500 0.0500  plane waves:     113
 k-point 36 :  -0.4500 0.4500 0.0500  plane waves:     108
 k-point 37 :  -0.3500 0.4500 0.0500  plane waves:     106
 k-point 38 :  -0.2500 0.4500 0.0500  plane waves:     105
 k-point 39 :  -0.1500 0.4500 0.0500  plane waves:     109
 k-point 40 :  -0.0500 0.4500 0.0500  plane waves:     110
 k-point 41 :  -0.4500-0.4500 0.0500  plane waves:     112
 k-point 42 :  -0.3500-0.4500 0.0500  plane waves:     109
 k-point 43 :  -0.2500-0.4500 0.0500  plane waves:     108
 k-point 44 :  -0.1500-0.4500 0.0500  plane waves:     110
 k-point 45 :  -0.3500-0.3500 0.0500  plane waves:     110
 k-point 46 :  -0.2500-0.3500 0.0500  plane waves:     111
 k-point 47 :  -0.1500-0.3500 0.0500  plane waves:     110
 k-point 48 :  -0.2500-0.2500 0.0500  plane waves:     109
 k-point 49 :  -0.1500-0.2500 0.0500  plane waves:     111
 k-point 50 :  -0.1500-0.1500 0.0500  plane waves:     113
 k-point 51 :   0.1500 0.1500 0.1500  plane waves:     116
 k-point 52 :   0.2500 0.1500 0.1500  plane waves:     113
 k-point 53 :   0.3500 0.1500 0.1500  plane waves:     109
 k-point 54 :   0.4500 0.1500 0.1500  plane waves:     106
 k-point 55 :  -0.4500 0.1500 0.1500  plane waves:     107
 k-point 56 :  -0.3500 0.1500 0.1500  plane waves:     108
 k-point 57 :  -0.2500 0.1500 0.1500  plane waves:     112
 k-point 58 :  -0.1500 0.1500 0.1500  plane waves:     111
 k-point 59 :   0.2500 0.2500 0.1500  plane waves:     110
 k-point 60 :   0.3500 0.2500 0.1500  plane waves:     110
 k-point 61 :   0.4500 0.2500 0.1500  plane waves:     107
 k-point 62 :  -0.4500 0.2500 0.1500  plane waves:     111
 k-point 63 :  -0.3500 0.2500 0.1500  plane waves:     109
 k-point 64 :  -0.2500 0.2500 0.1500  plane waves:     111
 k-point 65 :  -0.1500 0.2500 0.1500  plane waves:     108
 k-point 66 :   0.3500 0.3500 0.1500  plane waves:     111
 k-point 67 :   0.4500 0.3500 0.1500  plane waves:     110
 k-point 68 :  -0.4500 0.3500 0.1500  plane waves:     107
 k-point 69 :  -0.3500 0.3500 0.1500  plane waves:     109
 k-point 70 :  -0.2500 0.3500 0.1500  plane waves:     109
 k-point 71 :  -0.1500 0.3500 0.1500  plane waves:     109
 k-point 72 :   0.4500 0.4500 0.1500  plane waves:     106
 k-point 73 :  -0.4500 0.4500 0.1500  plane waves:     106
 k-point 74 :  -0.3500 0.4500 0.1500  plane waves:     106
 k-point 75 :  -0.2500 0.4500 0.1500  plane waves:     110
 k-point 76 :  -0.1500 0.4500 0.1500  plane waves:     109
 k-point 77 :  -0.4500-0.4500 0.1500  plane waves:     108
 k-point 78 :  -0.3500-0.4500 0.1500  plane waves:     106
 k-point 79 :  -0.2500-0.4500 0.1500  plane waves:     106
 k-point 80 :  -0.3500-0.3500 0.1500  plane waves:     108
 k-point 81 :  -0.2500-0.3500 0.1500  plane waves:     107
 k-point 82 :  -0.2500-0.2500 0.1500  plane waves:     109
 k-point 83 :   0.2500 0.2500 0.2500  plane waves:     107
 k-point 84 :   0.3500 0.2500 0.2500  plane waves:     106
 k-point 85 :   0.4500 0.2500 0.2500  plane waves:     106
 k-point 86 :  -0.4500 0.2500 0.2500  plane waves:     105
 k-point 87 :  -0.3500 0.2500 0.2500  plane waves:     107
 k-point 88 :  -0.2500 0.2500 0.2500  plane waves:     108
 k-point 89 :   0.3500 0.3500 0.2500  plane waves:     109
 k-point 90 :   0.4500 0.3500 0.2500  plane waves:     109
 k-point 91 :  -0.4500 0.3500 0.2500  plane waves:     110
 k-point 92 :  -0.3500 0.3500 0.2500  plane waves:     108
 k-point 93 :  -0.2500 0.3500 0.2500  plane waves:     107
 k-point 94 :   0.4500 0.4500 0.2500  plane waves:     111
 k-point 95 :  -0.4500 0.4500 0.2500  plane waves:     108
 k-point 96 :  -0.3500 0.4500 0.2500  plane waves:     107
 k-point 97 :  -0.2500 0.4500 0.2500  plane waves:     108
 k-point 98 :  -0.4500-0.4500 0.2500  plane waves:     106
 k-point 99 :  -0.3500-0.4500 0.2500  plane waves:     107
 k-point ** :  -0.3500-0.3500 0.2500  plane waves:     106
 k-point ** :   0.3500 0.3500 0.3500  plane waves:     111
 k-point ** :   0.4500 0.3500 0.3500  plane waves:     107
 k-point ** :  -0.4500 0.3500 0.3500  plane waves:     109
 k-point ** :  -0.3500 0.3500 0.3500  plane waves:     105
 k-point ** :   0.4500 0.4500 0.3500  plane waves:     110
 k-point ** :  -0.4500 0.4500 0.3500  plane waves:     108
 k-point ** :  -0.3500 0.4500 0.3500  plane waves:     108
 k-point ** :  -0.4500-0.4500 0.3500  plane waves:     107
 k-point ** :   0.4500 0.4500 0.4500  plane waves:     108
 k-point ** :  -0.4500 0.4500 0.4500  plane waves:     112

 maximum and minimum number of plane-waves per node :       116      105

 maximum number of plane-waves:       116
 maximum index in each direction: 
   IXMAX=    3   IYMAX=    3   IZMAX=    3
   IXMIN=   -3   IYMIN=   -3   IZMIN=   -3


 serial   3D FFT for wavefunctions
 parallel 3D FFT for charge:
    minimum data exchange during FFTs selected (reduces bandwidth)


 total amount of memory used by VASP MPI-rank0    32906. kBytes
=======================================================================

   base      :      30000. kBytes
   nonl-proj :       1839. kBytes
   fftplans  :        142. kBytes
   grid      :        192. kBytes
   one-center:         15. kBytes
   wavefun   :        718. kBytes
 
     INWAV:  cpu time    0.0201: real time    0.0466
 Broyden mixing: mesh for mixing (old mesh)
   NGX =  7   NGY =  7   NGZ =  7
  (NGX  = 20   NGY  = 20   NGZ  = 20)
  gives a total of    343 points

 charge density for first step will be calculated from the start-wavefunctions


--------------------------------------------------------------------------------------------------------


 Maximum index for augmentation-charges         1099 (set IRDMAX)


--------------------------------------------------------------------------------------------------------


 initial charge from wavefunction
 First call to EWALD:  gamma=   0.740
 Maximum number of real-space cells 3x 3x 3
 Maximum number of reciprocal cells 3x 3x 3

    FEWALD:  cpu time    0.0013: real time    0.0013


--------------------------------------- Iteration      1(   1)  ---------------------------------------


    POTLOK:  cpu time    0.0012: real time    0.0115
    SETDIJ:  cpu time    0.0014: real time    0.0013
     EDDAV:  cpu time    0.2276: real time    0.4550
       DOS:  cpu time    0.0013: real time    0.0014
    CHARGE:  cpu time    0.0029: real time    0.0072
    MIXING:  cpu time    0.0003: real time    0.0004
    --------------------------------------------
      LOOP:  cpu time    0.2347: real time    0.4767

 eigenvalue-minimisations  :  3048
 total energy-change (2. order) :-0.1057043E+02  (-0.1040132E+02)
 number of electron      10.9999992 magnetization 
 augmentation part        3.2128990 magnetization 

 Broyden mixing:
  rms(total) = 0.14848E+01    rms(broyden)= 0.14846E+01
  rms(prec ) = 0.55288E+01
  weight for this iteration     100.00

 Free energy of the ion-electron system (eV)
  ---------------------------------------------------
  alpha Z        PSCENC =       133.97575011
  Ewald energy   TEWEN  =     -1051.12442154
  -Hartree energ DENC   =      -124.45353992
  -exchange      EXHF   =         0.00000000
  -V(xc)+E(xc)   XCENC  =        18.48107626
  PAW double counting   =       845.18922350     -829.89935709
  entropy T*S    EENTRO =        -0.00067895
  eigenvalues    EBANDS =        67.86518423
  atomic energy  EATOM  =       929.39633208
  Solvation  Ediel_sol  =         0.00000000
  ---------------------------------------------------
  free energy    TOTEN  =       -10.57043132 eV

  energy without entropy =      -10.56975237  energy(sigma->0) =      -10.57020500


--------------------------------------------------------------------------------------------------------




--------------------------------------- Iteration      1(   2)  ---------------------------------------


    POTLOK:  cpu time    0.0012: real time    0.0012
    SETDIJ:  cpu time    0.0008: real time    0.0012
     EDDAV:  cpu time    0.2731: real time    0.7383
       DOS:  cpu time    0.0014: real time    0.0014
    CHARGE:  cpu time    0.0027: real time    0.0083
    MIXING:  cpu time    0.0004: real time    0.0004
    --------------------------------------------
      LOOP:  cpu time    0.2796: real time    0.7508

 eigenvalue-minimisations  :  2932
 total energy-change (2. order) : 0.6242876E+01  (-0.1239368E+01)
 number of electron      10.9999991 magnetization 
 augmentation part        3.7554741 magnetization 

 Broyden mixing:
  rms(total) = 0.40121E+00    rms(broyden)= 0.40119E+00
  rms(prec ) = 0.14154E+01
  weight for this iteration     100.00

 eigenvalues of (default mixing * dielectric matrix)
  average eigenvalue GAMMA=   1.3671
  1.3671

 Free energy of the ion-electron system (eV)
  ---------------------------------------------------
  alpha Z        PSCENC =       133.97575011
  Ewald energy   TEWEN  =     -1051.12442154
  -Hartree energ DENC   =       -94.18988570
  -exchange      EXHF   =         0.00000000
  -V(xc)+E(xc)   XCENC  =        16.93167093
  PAW double counting   =       803.14122769     -787.93051078
  entropy T*S    EENTRO =        -0.00138464
  eigenvalues    EBANDS =        45.47366631
  atomic energy  EATOM  =       929.39633208
  Solvation  Ediel_sol  =         0.00000000
  ---------------------------------------------------
  free energy    TOTEN  =        -4.32755553 eV

  energy without entropy =       -4.32617089  energy(sigma->0) =       -4.32709399


--------------------------------------------------------------------------------------------------------




--------------------------------------- Iteration      1(   3)  ---------------------------------------


    POTLOK:  cpu time    0.0012: real time    0.0012
    SETDIJ:  cpu time    0.0004: real time    0.0013
     EDDAV:  cpu time    0.2869: real time    0.8769
       DOS:  cpu time    0.0014: real time    0.0014
    CHARGE:  cpu time    0.0027: real time    0.0066
    MIXING:  cpu time    0.0008: real time    0.0032
    --------------------------------------------
      LOOP:  cpu time    0.2933: real time    0.8905

 eigenvalue-minimisations  :  3136
 total energy-change (2. order) : 0.4543661E+00  (-0.1834849E+00)
 number of electron      10.9999991 magnetization 
 augmentation part        3.9628401 magnetization 

 Broyden mixing:
  rms(total) = 0.33569E-01    rms(broyden)= 0.33305E-01
  rms(prec ) = 0.10727E+00
  weight for this iteration     100.00

 eigenvalues of (default mixing * dielectric matrix)
  average eigenvalue GAMMA=   1.7077
  1.4251  1.9902

 Free energy of the ion-electron system (eV)
  ---------------------------------------------------
  alpha Z        PSCENC =       133.97575011
  Ewald energy   TEWEN  =     -1051.12442154
  -Hartree energ DENC   =       -84.92126363
  -exchange      EXHF   =         0.00000000
  -V(xc)+E(xc)   XCENC  =        16.48068418
  PAW double counting   =       793.16811934     -777.46857946
  entropy T*S    EENTRO =        -0.00041322
  eigenvalues    EBANDS =        36.62060267
  atomic energy  EATOM  =       929.39633208
  Solvation  Ediel_sol  =         0.00000000
  ---------------------------------------------------
  free energy    TOTEN  =        -3.87318948 eV

  energy without entropy =       -3.87277626  energy(sigma->0) =       -3.87305174


--------------------------------------------------------------------------------------------------------




--------------------------------------- Iteration      1(   4)  ---------------------------------------


    POTLOK:  cpu time    0.0011: real time    0.0048
    SETDIJ:  cpu time    0.0007: real time    0.0029
     EDDAV:  cpu time    0.3056: real time    0.9215
       DOS:  cpu time    0.0022: real time    0.0053
    CHARGE:  cpu time    0.0027: real time    0.0027
    MIXING:  cpu time    0.0002: real time    0.0002
    --------------------------------------------
      LOOP:  cpu time    0.3126: real time    0.9374

 eigenvalue-minimisations  :  2900
 total energy-change (2. order) :-0.5190181E-02  (-0.1734258E-02)
 number of electron      10.9999991 magnetization 
 augmentation part        3.9530741 magnetization 

 Broyden mixing:
  rms(total) = 0.17113E-01    rms(broyden)= 0.17098E-01
  rms(prec ) = 0.40430E-01
  weight for this iteration     100.00

 eigenvalues of (default mixing * dielectric matrix)
  average eigenvalue GAMMA=   1.7370
  1.1353  1.2669  2.8088

 Free energy of the ion-electron system (eV)
  ---------------------------------------------------
  alpha Z        PSCENC =       133.97575011
  Ewald energy   TEWEN  =     -1051.12442154
  -Hartree energ DENC   =       -85.97519839
  -exchange      EXHF   =         0.00000000
  -V(xc)+E(xc)   XCENC  =        16.53693200
  PAW double counting   =       799.18681685     -782.99370738
  entropy T*S    EENTRO =        -0.00040310
  eigenvalues    EBANDS =        37.11951972
  atomic energy  EATOM  =       929.39633208
  Solvation  Ediel_sol  =         0.00000000
  ---------------------------------------------------
  free energy    TOTEN  =        -3.87837966 eV

  energy without entropy =       -3.87797656  energy(sigma->0) =       -3.87824529


--------------------------------------------------------------------------------------------------------




--------------------------------------- Iteration      1(   5)  ---------------------------------------


    POTLOK:  cpu time    0.0015: real time    0.0120
    SETDIJ:  cpu time    0.0011: real time    0.0018
     EDDAV:  cpu time    0.3336: real time    1.0118
       DOS:  cpu time    0.0013: real time    0.0014
    CHARGE:  cpu time    0.0029: real time    0.0072
    MIXING:  cpu time    0.0004: real time    0.0003
    --------------------------------------------
      LOOP:  cpu time    0.3407: real time    1.0345

 eigenvalue-minimisations  :  3268
 total energy-change (2. order) : 0.2326239E-03  (-0.2401704E-03)
 number of electron      10.9999991 magnetization 
 augmentation part        3.9607348 magnetization 

 Broyden mixing:
  rms(total) = 0.18394E-02    rms(broyden)= 0.18205E-02
  rms(prec ) = 0.50791E-02
  weight for this iteration     100.00

 eigenvalues of (default mixing * dielectric matrix)
  average eigenvalue GAMMA=   1.6010
  2.4967  0.9937  1.5885  1.3251

 Free energy of the ion-electron system (eV)
  ---------------------------------------------------
  alpha Z        PSCENC =       133.97575011
  Ewald energy   TEWEN  =     -1051.12442154
  -Hartree energ DENC   =       -85.89422274
  -exchange      EXHF   =         0.00000000
  -V(xc)+E(xc)   XCENC  =        16.53551076
  PAW double counting   =       801.30271579     -784.87912258
  entropy T*S    EENTRO =        -0.00039763
  eigenvalues    EBANDS =        36.80970872
  atomic energy  EATOM  =       929.39633208
  Solvation  Ediel_sol  =         0.00000000
  ---------------------------------------------------
  free energy    TOTEN  =        -3.87814704 eV

  energy without entropy =       -3.87774940  energy(sigma->0) =       -3.87801449


--------------------------------------------------------------------------------------------------------




--------------------------------------- Iteration      1(   6)  ---------------------------------------


    POTLOK:  cpu time    0.0014: real time    0.0061
    SETDIJ:  cpu time    0.0006: real time    0.0012
     EDDAV:  cpu time    0.2447: real time    0.7446
       DOS:  cpu time    0.0014: real time    0.0015
    --------------------------------------------
      LOOP:  cpu time    0.2482: real time    0.7533

 eigenvalue-minimisations  :  1652
 total energy-change (2. order) :-0.6972418E-05  (-0.4243885E-05)
 number of electron      10.9999991 magnetization 
 augmentation part        3.9607348 magnetization 

 Free energy of the ion-electron system (eV)
  ---------------------------------------------------
  alpha Z        PSCENC =       133.97575011
  Ewald energy   TEWEN  =     -1051.12442154
  -Hartree energ DENC   =       -85.89821291
  -exchange      EXHF   =         0.00000000
  -V(xc)+E(xc)   XCENC  =        16.53540182
  PAW double counting   =       801.04942084     -784.65370103
  entropy T*S    EENTRO =        -0.00039866
  eigenvalues    EBANDS =        36.84167528
  atomic energy  EATOM  =       929.39633208
  Solvation  Ediel_sol  =         0.00000000
  ---------------------------------------------------
  free energy    TOTEN  =        -3.87815401 eV

  energy without entropy =       -3.87775535  energy(sigma->0) =       -3.87802112


--------------------------------------------------------------------------------------------------------




 average (electrostatic) potential at core
  the test charge radii are     1.2098
  (the norm of the test charge is              1.0000)
       1 -43.4231
 
 
 
 E-fermi :   8.9720     XC(G=0): -14.2693     alpha+bet :-12.7847


 k-point     1 :       0.0500    0.0500    0.0500
  band No.  band energies     occupation 
      1      -3.5711      2.00000
      2       2.6546      2.00000
      3       2.7426      2.00000
      4       2.7426      2.00000
      5       4.9191      2.00000
      6       4.9191      2.00000
      7      24.0970      0.00000
      8      28.4197      0.00000
      9      29.2861      0.00000
     10      29.2861      0.00000
     11      34.6138      0.00000
     12      39.8197      0.00000

 k-point     2 :       0.1500    0.0500    0.0500
  band No.  band energies     occupation 
      1      -3.0158      2.00000
      2       2.4246      2.00000
      3       2.9363      2.00000
      4       2.9816      2.00000
      5       4.6883      2.00000
      6       4.9849      2.00000
      7      24.8304      0.00000
      8      26.3497      0.00000
      9      29.2453      0.00000
     10      30.4630      0.00000
     11      35.2111      0.00000
     12      38.2042      0.00000

 k-point     3 :       0.2500    0.0500    0.0500
  band No.  band energies     occupation 
      1      -1.8506      2.00000
      2       2.2395      2.00000
      3       3.1424      2.00000
      4       3.1778      2.00000
      5       4.6877      2.00000
      6       5.2836      2.00000
      7      22.9180      0.00000
      8      25.7096      0.00000
      9      30.1177      0.00000
     10      32.3394      0.00000
     11      32.5209      0.00000
     12      35.8891      0.00000

 k-point     4 :       0.3500    0.0500    0.0500
  band No.  band energies     occupation 
      1      -0.9193      2.00000
      2       2.8762      2.00000
      3       3.0070      2.00000
      4       3.1050      2.00000
      5       5.3985      2.00000
      6       6.0941      2.00000
      7      18.9404      0.00000
      8      24.8045      0.00000
      9      29.3898      0.00000
     10      31.9687      0.00000
     11      33.4588      0.00000
     12      35.1801      0.00000

 k-point     5 :       0.4500    0.0500    0.0500
  band No.  band energies     occupation 
      1      -0.7623      2.00000
      2       2.6617      2.00000
      3       2.7639      2.00000
      4       4.9874      2.00000
      5       6.2830      2.00000
      6       7.1038      2.00000
      7      14.9488      0.00000
      8      23.6910      0.00000
      9      28.0409      0.00000
     10      29.2609      0.00000
     11      36.1721      0.00000
     12      36.9066      0.00000

 k-point     6 :      -0.4500    0.0500    0.0500
  band No.  band energies     occupation 
      1      -0.7793      2.00000
      2       2.5661      2.00000
      3       2.7087      2.00000
      4       5.6783      2.00000
      5       6.7149      2.00000
      6       7.7209      2.00000
      7      13.2917     -0.00000
      8      23.3908      0.00000
      9      28.0066      0.00000
     10      28.0902      0.00000
     11      37.1649      0.00000
     12      37.3046      0.00000

 k-point     7 :      -0.3500    0.0500    0.0500
  band No.  band energies     occupation 
      1      -0.7701      2.00000
      2       2.7043      2.00000
      3       2.8661      2.00000
      4       4.2704      2.00000
      5       6.4097      2.00000
      6       6.4228      2.00000
      7      16.1867      0.00000
      8      23.9928      0.00000
      9      28.6640      0.00000
     10      29.6333      0.00000
     11      36.1179      0.00000
     12      36.1381      0.00000

 k-point     8 :      -0.2500    0.0500    0.0500
  band No.  band energies     occupation 
      1      -1.1355      2.00000
      2       2.5698      2.00000
      3       3.0164      2.00000
      4       3.1171      2.00000
      5       5.2510      2.00000
      6       5.6643      2.00000
      7      20.3224      0.00000
      8      25.2725      0.00000
      9      30.0505      0.00000
     10      31.9099      0.00000
     11      33.4513      0.00000
     12      35.0223      0.00000

 k-point     9 :      -0.1500    0.0500    0.0500
  band No.  band energies     occupation 
      1      -2.2709      2.00000
      2       2.2299      2.00000
      3       3.1343      2.00000
      4       3.1570      2.00000
      5       4.6259      2.00000
      6       5.1104      2.00000
      7      24.1299      0.00000
      8      25.6101      0.00000
      9      29.9899      0.00000
     10      31.1830      0.00000
     11      33.6903      0.00000
     12      36.2792      0.00000

 k-point    10 :      -0.0500    0.0500    0.0500
  band No.  band energies     occupation 
      1      -3.2877      2.00000
      2       2.4948      2.00000
      3       2.8761      2.00000
      4       2.8842      2.00000
      5       4.7276      2.00000
      6       5.0017      2.00000
      7      24.4982      0.00000
      8      27.4594      0.00000
      9      29.2325      0.00000
     10      29.5391      0.00000
     11      35.8831      0.00000
     12      38.7356      0.00000

 k-point    11 :       0.1500    0.1500    0.0500
  band No.  band energies     occupation 
      1      -2.7411      2.00000
      2       2.1789      2.00000
      3       3.1569      2.00000
      4       3.1627      2.00000
      5       4.3945      2.00000
      6       5.1610      2.00000
      7      25.2436      0.00000
      8      26.5676      0.00000
      9      28.9296      0.00000
     10      29.3786      0.00000
     11      36.0631      0.00000
     12      37.2750      0.00000

 k-point    12 :       0.2500    0.1500    0.0500
  band No.  band energies     occupation 
      1      -1.7638      2.00000
      2       1.8197      2.00000
      3       3.2800      2.00000
      4       3.5527      2.00000
      5       4.3046      2.00000
      6       5.4736      2.00000
      7      24.4355      0.00000
      8      26.0802      0.00000
      9      28.3634      0.00000
     10      29.7512      0.00000
     11      33.8900      0.00000
     12      36.4634      0.00000

 k-point    13 :       0.3500    0.1500    0.0500
  band No.  band energies     occupation 
      1      -0.6375      2.00000
      2       1.9366      2.00000
      3       2.8318      2.00000
      4       3.5595      2.00000
      5       5.2349      2.00000
      6       6.2841      2.00000
      7      20.6032      0.00000
      8      25.5624      0.00000
      9      27.4826      0.00000
     10      30.0668      0.00000
     11      34.3482      0.00000
     12      35.5930      0.00000

 k-point    14 :       0.4500    0.1500    0.0500
  band No.  band energies     occupation 
      1      -0.2983      2.00000
      2       2.3921      2.00000
      3       3.1254      2.00000
      4       3.3649      2.00000
      5       6.3544      2.00000
      6       7.6994      2.00000
      7      16.3177      0.00000
      8      24.4769      0.00000
      9      26.3988      0.00000
     10      28.8648      0.00000
     11      35.6957      0.00000
     12      37.5069      0.00000

 k-point    15 :      -0.4500    0.1500    0.0500
  band No.  band energies     occupation 
      1      -0.3078      2.00000
      2       2.2105      2.00000
      3       3.1255      2.00000
      4       4.2747      2.00000
      5       6.6385      2.00000
      6       9.5910     -0.00011
      7      13.1764     -0.00000
      8      23.9176      0.00000
      9      26.0772      0.00000
     10      27.6107      0.00000
     11      36.8575      0.00000
     12      37.7899      0.00000

 k-point    16 :      -0.3500    0.1500    0.0500
  band No.  band energies     occupation 
      1      -0.2654      2.00000
      2       2.3304      2.00000
      3       3.1602      2.00000
      4       3.8191      2.00000
      5       6.1504      2.00000
      6       8.5482      2.01068
      7      15.1064      0.00000
      8      24.0564      0.00000
      9      25.9472      0.00000
     10      28.9680      0.00000
     11      35.4158      0.00000
     12      37.6480      0.00000

 k-point    17 :      -0.2500    0.1500    0.0500
  band No.  band energies     occupation 
      1      -0.3848      2.00000
      2       2.3297      2.00000
      3       2.7370      2.00000
      4       3.4317      2.00000
      5       5.1258      2.00000
      6       7.0121      2.00000
      7      19.1939      0.00000
      8      24.7756      0.00000
      9      26.9654      0.00000
     10      31.1127      0.00000
     11      33.2682      0.00000
     12      36.5554      0.00000

 k-point    18 :      -0.1500    0.1500    0.0500
  band No.  band energies     occupation 
      1      -1.3465      2.00000
      2       1.8798      2.00000
      3       3.1206      2.00000
      4       3.5842      2.00000
      5       4.2984      2.00000
      6       5.8389      2.00000
      7      23.0645      0.00000
      8      25.6078      0.00000
      9      28.7211      0.00000
     10      29.8909      0.00000
     11      34.0644      0.00000
     12      36.2476      0.00000

 k-point    19 :      -0.0500    0.1500    0.0500
  band No.  band energies     occupation 
      1      -2.4916      2.00000
      2       2.1818      2.00000
      3       3.1571      2.00000
      4       3.1747      2.00000
      5       4.4526      2.00000
      6       5.1687      2.00000
      7      25.2158      0.00000
      8      25.5349      0.00000
      9      28.9674      0.00000
     10      30.8230      0.00000
     11      34.1217      0.00000
     12      37.3686      0.00000

 k-point    20 :       0.2500    0.2500    0.0500
  band No.  band energies     occupation 
      1      -1.1363      2.00000
      2       1.3156      2.00000
      3       3.4776      2.00000
      4       4.0960      2.00000
      5       4.3594      2.00000
      6       5.6604      2.00000
      7      25.1581      0.00000
      8      26.6606      0.00000
      9      26.9926      0.00000
     10      27.9330      0.00000
     11      31.5186      0.00000
     12      37.1166      0.00000

 k-point    21 :       0.3500    0.2500    0.0500
  band No.  band energies     occupation 
      1      -0.2623      2.00000
      2       1.0024      2.00000
      3       3.1052      2.00000
      4       4.5872      2.00000
      5       5.2737      2.00000
      6       6.3215      2.00000
      7      22.4400      0.00000
      8      24.6008      0.00000
      9      26.0348      0.00000
     10      29.0538      0.00000
     11      31.0283      0.00000
     12      37.2698      0.00000

 k-point    22 :       0.4500    0.2500    0.0500
  band No.  band energies     occupation 
      1       0.1897      2.00000
      2       1.3472      2.00000
      3       2.7662      2.00000
      4       4.3878      2.00000
      5       6.4916      2.00000
      6       8.0603      2.00000
      7      17.9523      0.00000
      8      23.8860      0.00000
      9      24.2154      0.00000
     10      28.6185      0.00000
     11      34.2146      0.00000
     12      37.6482      0.00000

 k-point    23 :      -0.4500    0.2500    0.0500
  band No.  band energies     occupation 
      1       0.3227      2.00000
      2       1.6811      2.00000
      3       3.0173      2.00000
      4       4.0961      2.00000
      5       6.6901      2.00000
      6      10.9551     -0.00000
      7      13.9534     -0.00000
      8      22.5169      0.00000
      9      24.3609      0.00000
     10      27.7476      0.00000
     11      36.7520      0.00000
     12      38.9476      0.00000

 k-point    24 :      -0.3500    0.2500    0.0500
  band No.  band energies     occupation 
      1       0.5745      2.00000
      2       1.7774      2.00000
      3       3.0160      2.00000
      4       3.9440      2.00000
      5       6.0876      2.00000
      6      10.7854     -0.00000
      7      14.7006      0.00000
      8      21.3268      0.00000
      9      25.5395      0.00000
     10      28.0066      0.00000
     11      35.5185      0.00000
     12      38.2940      0.00000

 k-point    25 :      -0.2500    0.2500    0.0500
  band No.  band energies     occupation 
      1       0.7522      2.00000
      2       1.9326      2.00000
      3       2.2298      2.00000
      4       4.0536      2.00000
      5       5.0751      2.00000
      6       8.8229      1.94969
      7      18.3819      0.00000
      8      21.3805      0.00000
      9      26.3432      0.00000
     10      30.3333      0.00000
     11      32.6236      0.00000
     12      38.3397      0.00000

 k-point    26 :      -0.1500    0.2500    0.0500
  band No.  band energies     occupation 
      1      -0.1342      2.00000
      2       1.7708      2.00000
      3       2.7033      2.00000
      4       3.8955      2.00000
      5       4.4943      2.00000
      6       7.1497      2.00000
      7      20.6628      0.00000
      8      23.8361      0.00000
      9      27.2503      0.00000
     10      30.5037      0.00000
     11      33.1793      0.00000
     12      37.2983      0.00000

 k-point    27 :      -0.0500    0.2500    0.0500
  band No.  band energies     occupation 
      1      -1.2772      2.00000
      2       2.1300      2.00000
      3       3.0846      2.00000
      4       3.3112      2.00000
      5       4.7664      2.00000
      6       5.7349      2.00000
      7      21.7729      0.00000
      8      25.7251      0.00000
      9      29.1424      0.00000
     10      31.0939      0.00000
     11      34.0037      0.00000
     12      34.9776      0.00000

 k-point    28 :       0.3500    0.3500    0.0500
  band No.  band energies     occupation 
      1      -0.2186      2.00000
      2       0.4753      2.00000
      3       4.2656      2.00000
      4       5.3572      2.00000
      5       5.8810      2.00000
      6       6.2618      2.00000
      7      22.3887      0.00000
      8      23.2253      0.00000
      9      24.0234      0.00000
     10      28.0939      0.00000
     11      30.0129      0.00000
     12      39.7167      0.00000

 k-point    29 :       0.4500    0.3500    0.0500
  band No.  band energies     occupation 
      1      -0.1154      2.00000
      2       0.3301      2.00000
      3       4.3564      2.00000
      4       5.7791      2.00000
      5       6.5113      2.00000
      6       8.0400      2.00000
      7      19.3239      0.00000
      8      21.4740      0.00000
      9      22.2086      0.00000
     10      29.2272      0.00000
     11      31.3173      0.00000
     12      39.4899      0.00000

 k-point    30 :      -0.4500    0.3500    0.0500
  band No.  band energies     occupation 
      1       0.0800      2.00000
      2       0.7520      2.00000
      3       3.8675      2.00000
      4       5.3360      2.00000
      5       6.8373      2.00000
      6      11.2285     -0.00000
      7      15.5133      0.00000
      8      19.9636      0.00000
      9      22.1234      0.00000
     10      29.3303      0.00000
     11      34.3711      0.00000
     12      38.4773      0.00000

 k-point    31 :      -0.3500    0.3500    0.0500
  band No.  band energies     occupation 
      1       0.4829      2.00000
      2       1.4384      2.00000
      3       3.1163      2.00000
      4       4.8512      2.00000
      5       6.3465      2.00000
      6      12.6002     -0.00000
      7      15.0355      0.00000
      8      18.1080      0.00000
      9      23.8232      0.00000
     10      28.7343      0.00000
     11      36.8596      0.00000
     12      38.2945      0.00000

 k-point    32 :      -0.2500    0.3500    0.0500
  band No.  band energies     occupation 
      1       0.9254      2.00000
      2       1.8330      2.00000
      3       2.4265      2.00000
      4       4.3301      2.00000
      5       5.7335      2.00000
      6      10.6496     -0.00000
      7      16.7525      0.00000
      8      19.1085      0.00000
      9      25.7321      0.00000
     10      28.4885      0.00000
     11      34.7931      0.00000
     12      38.4279      0.00000

 k-point    33 :      -0.1500    0.3500    0.0500
  band No.  band energies     occupation 
      1       0.2180      2.00000
      2       2.1825      2.00000
      3       2.8296      2.00000
      4       3.6222      2.00000
      5       5.5990      2.00000
      6       8.7460      2.06779
      7      16.7086      0.00000
      8      23.0687      0.00000
      9      25.8645      0.00000
     10      29.6782      0.00000
     11      33.8734      0.00000
     12      37.9794      0.00000

 k-point    34 :      -0.0500    0.3500    0.0500
  band No.  band energies     occupation 
      1      -0.6338      2.00000
      2       2.7058      2.00000
      3       3.0598      2.00000
      4       3.2904      2.00000
      5       5.7806      2.00000
      6       6.7495      2.00000
      7      17.6162      0.00000
      8      24.5478      0.00000
      9      27.8757      0.00000
     10      30.5387      0.00000
     11      34.5305      0.00000
     12      36.2811      0.00000

 k-point    35 :       0.4500    0.4500    0.0500
  band No.  band energies     occupation 
      1      -0.4999      2.00000
      2      -0.0691      2.00000
      3       6.2341      2.00000
      4       6.3822      2.00000
      5       6.8815      2.00000
      6       8.2780      2.00001
      7      18.3354      0.00000
      8      20.3136      0.00000
      9      20.5546      0.00000
     10      28.5533      0.00000
     11      31.5252      0.00000
     12      40.7301      0.00000

 k-point    36 :      -0.4500    0.4500    0.0500
  band No.  band energies     occupation 
      1      -0.4200      2.00000
      2       0.0048      2.00000
      3       5.6679      2.00000
      4       6.2988      2.00000
      5       7.1028      2.00000
      6      10.6405     -0.00000
      7      16.2194      0.00000
      8      19.2390      0.00000
      9      20.1824      0.00000
     10      29.6797      0.00000
     11      32.0923      0.00000
     12      39.7680      0.00000

 k-point    37 :      -0.3500    0.4500    0.0500
  band No.  band energies     occupation 
      1      -0.0082      2.00000
      2       0.6319      2.00000
      3       4.2624      2.00000
      4       5.5886      2.00000
      5       6.8278      2.00000
      6      12.7499     -0.00000
      7      14.6855      0.00000
      8      18.4032      0.00000
      9      21.7007      0.00000
     10      29.6771      0.00000
     11      34.4490      0.00000
     12      38.4852      0.00000

 k-point    38 :      -0.2500    0.4500    0.0500
  band No.  band energies     occupation 
      1       0.4616      2.00000
      2       1.4939      2.00000
      3       3.0580      2.00000
      4       4.5336      2.00000
      5       6.5347      2.00000
      6      12.9863     -0.00000
      7      13.0885     -0.00000
      8      20.2952      0.00000
      9      24.0031      0.00000
     10      28.2815      0.00000
     11      36.8172      0.00000
     12      38.7058      0.00000

 k-point    39 :      -0.1500    0.4500    0.0500
  band No.  band energies     occupation 
      1       0.1056      2.00000
      2       1.9499      2.00000
      3       3.4980      2.00000
      4       3.6595      2.00000
      5       6.4454      2.00000
      6      10.6764     -0.00000
      7      13.2474     -0.00000
      8      23.2718      0.00000
      9      25.3422      0.00000
     10      27.5718      0.00000
     11      36.3996      0.00000
[...]
      6       9.8352     -0.00000
      7      17.4587      0.00000
      8      20.1591      0.00000
      9      25.0112      0.00000
     10      30.1476      0.00000
     11      33.3703      0.00000
     12      39.1054      0.00000

 k-point    92 :      -0.3500    0.3500    0.2500
  band No.  band energies     occupation 
      1       0.9415      2.00000
      2       1.6045      2.00000
      3       2.4488      2.00000
      4       4.5956      2.00000
      5       6.2495      2.00000
      6      11.8554     -0.00000
      7      16.0013      0.00000
      8      18.3515      0.00000
      9      23.5840      0.00000
     10      29.7801      0.00000
     11      35.1066      0.00000
     12      39.9038      0.00000

 k-point    93 :      -0.2500    0.3500    0.2500
  band No.  band energies     occupation 
      1       0.4817      2.00000
      2       1.2012      2.00000
      3       3.0282      2.00000
      4       4.9572      2.00000
      5       6.6944      2.00000
      6      12.2595     -0.00000
      7      14.6489      0.00000
      8      19.8776      0.00000
      9      22.1143      0.00000
     10      29.9411      0.00000
     11      35.5363      0.00000
     12      37.8308      0.00000

 k-point    94 :       0.4500    0.4500    0.2500
  band No.  band energies     occupation 
      1       0.0796      2.00000
      2       1.7968      2.00000
      3       2.7936      2.00000
      4       3.9248      2.00000
      5       6.7837      2.00000
      6       8.4486      2.00135
      7      16.3907      0.00000
      8      24.1314      0.00000
      9      25.1779      0.00000
     10      27.5559      0.00000
     11      36.5162      0.00000
     12      37.4586      0.00000

 k-point    95 :      -0.4500    0.4500    0.2500
  band No.  band energies     occupation 
      1       0.5213      2.00000
      2       1.4241      2.00000
      3       2.6733      2.00000
      4       4.6356      2.00000
      5       6.5507      2.00000
      6      10.5131     -0.00000
      7      15.5351      0.00000
      8      21.8197      0.00000
      9      22.9298      0.00000
     10      29.3694      0.00000
     11      35.1235      0.00000
     12      38.4115      0.00000

 k-point    96 :      -0.3500    0.4500    0.2500
  band No.  band energies     occupation 
      1       0.9506      2.00000
      2       1.5610      2.00000
      3       2.1951      2.00000
      4       4.7844      2.00000
      5       6.7587      2.00000
      6      12.6629     -0.00000
      7      15.9682      0.00000
      8      18.1193      0.00000
      9      21.2872      0.00000
     10      32.2164      0.00000
     11      34.0758      0.00000
     12      38.5690      0.00000

 k-point    97 :      -0.2500    0.4500    0.2500
  band No.  band energies     occupation 
      1       0.7796      2.00000
      2       1.5679      2.00000
      3       2.4049      2.00000
      4       4.7178      2.00000
      5       7.0925      2.00000
      6      14.2291     -0.00000
      7      15.4880      0.00000
      8      17.0659      0.00000
      9      20.2114      0.00000
     10      33.2056      0.00000
     11      34.7141      0.00000
     12      36.8831      0.00000

 k-point    98 :      -0.4500   -0.4500    0.2500
  band No.  band energies     occupation 
      1       0.2054      2.00000
      2       1.1486      2.00000
      3       3.5125      2.00000
      4       4.8745      2.00000
      5       6.7256      2.00000
      6      12.0832     -0.00000
      7      14.1673     -0.00000
      8      20.0928      0.00000
      9      23.4811      0.00000
     10      28.2992      0.00000
     11      36.2617      0.00000
     12      38.4974      0.00000

 k-point    99 :      -0.3500   -0.4500    0.2500
  band No.  band energies     occupation 
      1       0.4094      2.00000
      2       1.1115      2.00000
      3       3.3036      2.00000
      4       5.0763      2.00000
      5       6.7745      2.00000
      6      13.6993     -0.00000
      7      14.3486     -0.00000
      8      18.0375      0.00000
      9      21.7709      0.00000
     10      30.3967      0.00000
     11      36.1060      0.00000
     12      37.0121      0.00000

 k-point   100 :      -0.3500   -0.3500    0.2500
  band No.  band energies     occupation 
      1       0.1642      2.00000
      2       1.0310      2.00000
      3       3.7779      2.00000
      4       5.2459      2.00000
      5       6.5409      2.00000
      6      13.4435     -0.00000
      7      13.9529     -0.00000
      8      18.1922      0.00000
      9      23.1522      0.00000
     10      28.7110      0.00000
     11      36.2565      0.00000
     12      38.6361      0.00000

 k-point   101 :       0.3500    0.3500    0.3500
  band No.  band energies     occupation 
      1      -0.9008      2.00000
      2       2.8618      2.00000
      3       2.8618      2.00000
      4       3.8642      2.00000
      5       5.9546      2.00000
      6       5.9546      2.00000
      7      17.5087      0.00000
      8      24.2641      0.00000
      9      30.2000      0.00000
     10      30.2000      0.00000
     11      35.2687      0.00000
     12      35.5431      0.00000

 k-point   102 :       0.4500    0.3500    0.3500
  band No.  band energies     occupation 
      1      -0.4998      2.00000
      2       2.5878      2.00000
      3       3.0149      2.00000
      4       3.7946      2.00000
      5       5.7894      2.00000
      6       7.5468      2.00000
      7      16.3070      0.00000
      8      24.2088      0.00000
      9      26.9115      0.00000
     10      30.1874      0.00000
     11      34.5738      0.00000
     12      37.0191      0.00000

 k-point   103 :      -0.4500    0.3500    0.3500
  band No.  band energies     occupation 
      1       0.3823      2.00000
      2       2.0207      2.00000
      3       3.1045      2.00000
      4       3.6524      2.00000
      5       5.7533      2.00000
      6       9.6727     -0.00001
      7      15.6499      0.00000
      8      22.1098      0.00000
      9      26.1894      0.00000
     10      28.4205      0.00000
     11      34.7360      0.00000
     12      37.8476      0.00000

 k-point   104 :      -0.3500    0.3500    0.3500
  band No.  band energies     occupation 
      1       0.6562      2.00000
      2       1.7563      2.00000
      3       2.8041      2.00000
      4       4.5405      2.00000
      5       5.9758      2.00000
      6      11.5232     -0.00000
      7      15.9808      0.00000
      8      18.3935      0.00000
      9      25.7363      0.00000
     10      27.5497      0.00000
     11      36.3835      0.00000
     12      38.1172      0.00000

 k-point   105 :       0.4500    0.4500    0.3500
  band No.  band energies     occupation 
      1      -0.5261      2.00000
      2       2.4513      2.00000
      3       3.0175      2.00000
      4       4.0960      2.00000
      5       6.6924      2.00000
      6       7.7050      2.00000
      7      14.9569      0.00000
      8      24.0180      0.00000
      9      27.4550      0.00000
     10      28.1764      0.00000
     11      36.6659      0.00000
     12      37.4475      0.00000

 k-point   106 :      -0.4500    0.4500    0.3500
  band No.  band energies     occupation 
      1       0.0599      2.00000
      2       1.9967      2.00000
      3       3.3877      2.00000
      4       3.6329      2.00000
      5       6.4564      2.00000
      6       9.9185     -0.00000
      7      14.0221     -0.00000
      8      23.9209      0.00000
      9      24.7535      0.00000
     10      28.1299      0.00000
     11      35.9833      0.00000
     12      38.3785      0.00000

 k-point   107 :      -0.3500    0.4500    0.3500
  band No.  band energies     occupation 
      1       0.8020      2.00000
      2       1.5041      2.00000
      3       2.7859      2.00000
      4       4.3112      2.00000
      5       6.3914      2.00000
      6      12.2040     -0.00000
      7      13.8472     -0.00000
      8      20.6893      0.00000
      9      23.6333      0.00000
     10      29.0918      0.00000
     11      35.5575      0.00000
     12      39.6665      0.00000

 k-point   108 :      -0.4500   -0.4500    0.3500
  band No.  band energies     occupation 
      1       0.1871      2.00000
      2       1.8633      2.00000
      3       3.4036      2.00000
      4       3.7013      2.00000
      5       6.6119      2.00000
      6      11.1801     -0.00000
      7      13.0381     -0.00000
      8      22.8058      0.00000
      9      26.0915      0.00000
     10      26.4650      0.00000
     11      37.4839      0.00000
     12      37.6759      0.00000

 k-point   109 :       0.4500    0.4500    0.4500
  band No.  band energies     occupation 
      1      -0.8576      2.00000
      2       2.6607      2.00000
      3       2.6607      2.00000
      4       6.1879      2.00000
      5       6.6107      2.00000
      6       6.6107      2.00000
      7      13.9199     -0.00000
      8      23.3595      0.00000
      9      28.5194      0.00000
     10      28.5194      0.00000
     11      36.9932      0.00000
     12      38.2666      0.00000

 k-point   110 :      -0.4500    0.4500    0.4500
  band No.  band energies     occupation 
      1      -0.5321      2.00000
      2       2.3918      2.00000
      3       2.9032      2.00000
      4       4.8393      2.00000
      5       6.5740      2.00000
      6       8.8722      1.73932
      7      13.2479     -0.00000
      8      23.7075      0.00000
      9      26.8014      0.00000
     10      27.9944      0.00000
     11      36.9918      0.00000
     12      37.3429      0.00000


--------------------------------------------------------------------------------------------------------


 soft charge-density along one line, spin component           1
         0         1         2         3         4         5         6         7         8         9
 total charge-density along one line
 
 pseudopotential strength for first ion, spin component:           1
 -8.755   0.000   0.000   0.000   0.000   0.000   0.000   0.000   0.000   0.000  -0.247   0.000  -0.000   0.000  -0.000   0.000
  0.000   0.000  -8.755   0.000  -0.000   0.000   0.000   0.000   0.000   0.000  -0.000   0.000  -0.247   0.000   0.000   0.000
  0.000   0.000  -0.000   0.000  -8.732   0.000  -0.000   0.000  -0.000   0.000  -0.000   0.000   0.000   0.000  -0.250   0.000
  0.000   0.000   0.000   0.000  -0.000   0.000  -8.755   0.000  -0.000   0.000  -0.000   0.000  -0.000   0.000   0.000   0.000
  0.000   0.000   0.000   0.000  -0.000   0.000  -0.000   0.000  -8.732   0.000  -0.000   0.000  -0.000   0.000   0.000   0.000
 -0.247   0.000  -0.000   0.000  -0.000   0.000  -0.000   0.000  -0.000   0.000   0.305   0.000   0.000   0.000   0.000   0.000
 -0.000   0.000  -0.247   0.000   0.000   0.000  -0.000   0.000  -0.000   0.000   0.000   0.000   0.305   0.000  -0.000   0.000
 -0.000   0.000   0.000   0.000  -0.250   0.000   0.000   0.000   0.000   0.000   0.000   0.000  -0.000   0.000   0.305   0.000
 -0.000   0.000  -0.000   0.000   0.000   0.000  -0.247   0.000   0.000   0.000   0.000   0.000   0.000   0.000  -0.000   0.000
 -0.000   0.000  -0.000   0.000   0.000   0.000   0.000   0.000  -0.250   0.000   0.000   0.000   0.000   0.000  -0.000   0.000
  0.000   0.000   0.000   0.000   0.000   0.000   0.000   0.000  -0.000   0.000   0.000   0.000   0.000   0.000  -0.000   0.000
 -0.000   0.000  -0.000   0.000  -0.000   0.000  -0.000   0.000   0.000   0.000   0.000   0.000   0.000   0.000   0.000   0.000
 -0.000   0.000  -0.000   0.000   0.000   0.000   0.000   0.000   0.000   0.000   0.000   0.000   0.000   0.000  -0.000   0.000
  0.000   0.000  -0.000   0.000  -0.000   0.000  -0.000   0.000   0.000   0.000  -0.000   0.000   0.000   0.000   0.000   0.000
 -0.000   0.000   0.000   0.000   0.000   0.000  -0.000   0.000  -0.000   0.000   0.000   0.000  -0.000   0.000  -0.000   0.000
  0.000   0.000   0.000   0.000  -0.000   0.000  -0.000   0.000  -0.000   0.000  -0.000   0.000  -0.000   0.000   0.000   0.000
 -0.000   0.000   0.000   0.000   0.000   0.000   0.000   0.000  -0.000   0.000   0.000   0.000  -0.000   0.000  -0.000   0.000
  0.000   0.000  -0.000   0.000  -0.000   0.000   0.000   0.000   0.000   0.000  -0.000   0.000   0.000   0.000   0.000   0.000
 total augmentation occupancy for first ion, spin component:           1
  1.915  -0.000  -0.000  -0.000   0.000   0.049  -0.000   0.000   0.000  -0.000  -0.000  -0.000   0.000   0.000   0.000   0.000
  0.000   1.915   0.000   0.000   0.000   0.000   0.049  -0.000   0.000   0.000  -0.000   0.000   0.000   0.000   0.000   0.000
  0.000  -0.000   1.965  -0.000   0.000  -0.000   0.000  -0.013  -0.000   0.000   0.000  -0.000   0.000   0.000   0.000   0.000
 -0.000   0.000   0.000   1.915   0.000   0.000   0.000   0.000   0.049   0.000  -0.000  -0.000   0.000   0.000   0.000   0.000
 -0.000   0.000   0.000  -0.000   1.965   0.000   0.000   0.000  -0.000  -0.013   0.000   0.000   0.000   0.000   0.000   0.000
  0.049   0.000   0.000   0.000   0.000   0.439  -0.000   0.000  -0.000   0.000   0.000   0.000   0.000   0.000   0.000   0.000
  0.000   0.049   0.000   0.000   0.000  -0.000   0.439   0.000   0.000   0.000  -0.000   0.000   0.000   0.000   0.000   0.000
  0.000   0.000  -0.013   0.000   0.000   0.000   0.000   0.345   0.000   0.000  -0.000   0.000   0.000   0.000   0.000   0.000
  0.000  -0.000  -0.000   0.049  -0.000  -0.000   0.000   0.000   0.439  -0.000  -0.000   0.000   0.000   0.000   0.000   0.000
 -0.000  -0.000   0.000   0.000  -0.013  -0.000   0.000   0.000  -0.000   0.345   0.000   0.000   0.000   0.000   0.000   0.000
 -0.000   0.000  -0.000   0.000   0.000   0.000  -0.000  -0.000  -0.000   0.000   1.219  -0.572   0.000   0.000   0.000   0.000
  0.000   0.000  -0.000   0.000   0.000   0.000   0.000  -0.000   0.000   0.000  -0.572   0.466   0.000   0.000   0.000   0.000
  0.000   0.000   0.000   0.000   0.000   0.000   0.000   0.000   0.000   0.000   0.000   0.000   0.265   0.000   0.000  -0.020
  0.000   0.000   0.000   0.000   0.000   0.000   0.000   0.000   0.000   0.000   0.000   0.000   0.000   0.265  -0.000   0.000
  0.000   0.000   0.000   0.000   0.000   0.000   0.000   0.000   0.000   0.000   0.000   0.000   0.000   0.000   0.265  -0.000
  0.000   0.000   0.000   0.000   0.000   0.000   0.000   0.000   0.000   0.000   0.000   0.000  -0.020  -0.000  -0.000   0.002
  0.000   0.000   0.000   0.000   0.000   0.000   0.000   0.000   0.000   0.000   0.000   0.000  -0.000  -0.020   0.000   0.000
  0.000   0.000   0.000   0.000   0.000   0.000   0.000   0.000   0.000   0.000   0.000   0.000   0.000  -0.000  -0.020  -0.000


------------------------ aborting loop because EDIFF is reached ----------------------------------------


    CHARGE:  cpu time    0.0029: real time    0.0063
    FORLOC:  cpu time    0.0001: real time    0.0001
    FORNL :  cpu time    0.0072: real time    0.0257
    STRESS:  cpu time    0.0401: real time    0.1129
    FORCOR:  cpu time    0.0009: real time    0.0068
    FORHAR:  cpu time    0.0008: real time    0.0039
    MIXING:  cpu time    0.0000: real time    0.0002
    OFIELD:  cpu time    0.0000: real time    0.0000

  FORCE on cell =-STRESS in cart. coord.  units (eV):
  Direction    XX          YY          ZZ          XY          YZ          ZX
  --------------------------------------------------------------------------------------
  Alpha Z   133.97575   133.97575   133.97575
  Ewald    -350.37482  -350.37482  -350.37482    -0.00000     0.00000     0.00000
  Hartree    28.63427    28.63427    28.63427     0.00001     0.00001     0.00001
  E(xc)     -50.23867   -50.23867   -50.23867     0.00002     0.00002     0.00002
  Local      88.65683    88.65683    88.65683     0.00028     0.00028     0.00028
  n-local   -44.02656   -40.46701   -44.54464     0.71104    -0.62755     0.04550
  augment    41.89567    41.89567    41.89567    -0.00025    -0.00025    -0.00025
  Kinetic   155.79833   155.01204   157.02357    -0.05328     0.01576     0.04298
  Fock        0.00000     0.00000     0.00000     0.00000     0.00000     0.00000
  -------------------------------------------------------------------------------------
  Total       5.48094     5.48094     5.48094     0.00000    -0.00000     0.00000
  in kB     640.13980   640.13980   640.13980     0.00000    -0.00000     0.00000
  external pressure =      640.14 kB  Pullay stress =        0.00 kB


 VOLUME and BASIS-vectors are now :
 -----------------------------------------------------------------------------
  energy-cutoff  :      230.00
  volume of cell :       13.72
      direct lattice vectors                 reciprocal lattice vectors
     0.000000000  1.900000000  1.900000000    -0.263157895  0.263157895  0.263157895
     1.900000000  0.000000000  1.900000000     0.263157895 -0.263157895  0.263157895
     1.900000000  1.900000000  0.000000000     0.263157895  0.263157895 -0.263157895

  length of vectors
     2.687005769  2.687005769  2.687005769     0.455802844  0.455802844  0.455802844


 FORCES acting on ions
    electron-ion (+dipol)            ewald-force                    non-local-force                 convergence-correction
 -----------------------------------------------------------------------------------------------
   0.880E-14 0.877E-14 0.114E-13   -.107E-14 -.258E-15 0.532E-14   0.000E+00 0.000E+00 0.000E+00   0.130E-13 0.512E-14 0.394E-15
 -----------------------------------------------------------------------------------------------
   0.880E-14 0.877E-14 0.114E-13   -.107E-14 -.258E-15 0.532E-14   0.000E+00 0.000E+00 0.000E+00   0.130E-13 0.512E-14 0.394E-15
 
 
 POSITION                                       TOTAL-FORCE (eV/Angst)
 -----------------------------------------------------------------------------------
      0.00000      0.00000      0.00000         0.000000     -0.000000      0.000000
 -----------------------------------------------------------------------------------
    total drift:                                0.000000      0.000000      0.000000


--------------------------------------------------------------------------------------------------------



  FREE ENERGIE OF THE ION-ELECTRON SYSTEM (eV)
  ---------------------------------------------------
  free  energy   TOTEN  =        -3.87815401 eV

  energy  without entropy=       -3.87775535  energy(sigma->0) =       -3.87802112
 


--------------------------------------------------------------------------------------------------------


    POTLOK:  cpu time    0.0022: real time    0.0068


--------------------------------------------------------------------------------------------------------


 writing wavefunctions
     LOOP+:  cpu time    1.8613: real time    5.3476
    4ORBIT:  cpu time    0.0000: real time    0.0000

 total amount of memory used by VASP MPI-rank0    32906. kBytes
=======================================================================

   base      :      30000. kBytes
   nonl-proj :       1839. kBytes
   fftplans  :        142. kBytes
   grid      :        192. kBytes
   one-center:         15. kBytes
   wavefun   :        718. kBytes
 
  
  
 General timing and accounting informations for this job:
 ========================================================
  
                  Total CPU time used (sec):        2.273
                            User time (sec):        2.006
                          System time (sec):        0.267
                         Elapsed time (sec):        6.546
  
                   Maximum memory used (kb):       56504.
                   Average memory used (kb):           0.
  
                          Minor page faults:        17329
                          Major page faults:            0
                 Voluntary context switches:         1981
