fcc Au                                  
   4.00000000000000     
     0.000000    0.500000    0.500000
     0.500000    0.000000    0.500000
     0.500000    0.500000    0.000000
   Au
     1
Direct
  0.000000  0.000000  0.000000
 
   20   20   20
  76.739      72.980      63.531      52.002      40.643      29.796      19.799      12.002      7.4837      5.5935    
  5.0934      5.5935      7.4837      12.002      19.799      29.796      40.643      52.002      63.531      72.980    
  72.980      66.480      56.191      45.045      34.198      23.893      15.068      9.0990      6.1859      5.1105    
  5.1213      6.2011      9.0957      15.059      23.907      34.224      45.017      56.069      66.322      72.906    
  63.531      56.191      46.653      36.561      26.581      17.531      10.731      6.8850      5.2092      4.7576    
  5.2161      6.8853      10.725      17.540      26.611      36.572      46.594      56.069      63.427      66.322    
  52.002      45.045      36.561      27.518      18.885      11.928      7.5433      5.3830      4.5265      4.5249    
  5.3783      7.5369      11.925      18.891      27.533      36.577      45.055      52.004      56.069      56.069    
  40.643      34.198      26.581      18.885      12.373      7.9585      5.5514      4.3982      4.0828      4.4000    
  5.5509      7.9498      12.355      18.867      26.581      34.228      40.691      45.055      46.594      45.017    
  29.796      23.893      17.531      11.928      7.9585      5.6277      4.3519      3.8285      3.8290      4.3561    
  5.6363      7.9602      11.908      17.490      23.854      29.779      34.228      36.577      36.572      34.224    
  19.799      15.068      10.731      7.5433      5.5514      4.3519      3.7487      3.5677      3.7450      4.3591    
  5.5751      7.5658      10.725      15.026      19.738      23.854      26.581      27.533      26.611      23.907    
  12.002      9.0990      6.8850      5.3830      4.3982      3.8285      3.5677      3.5648      3.8226      4.3986    
  5.4013      6.9227      9.1372      12.011      15.026      17.490      18.867      18.891      17.540      15.059    
  7.4837      6.1859      5.2092      4.5265      4.0828      3.8290      3.7450      3.8226      4.0638      4.5033    
  5.2096      6.2274      7.5465      9.1372      10.725      11.908      12.355      11.925      10.725      9.0957    
  5.5935      5.1105      4.7576      4.5249      4.4000      4.3561      4.3591      4.3986      4.5033      4.7188    
  5.0783      5.5903      6.2274      6.9227      7.5658      7.9602      7.9498      7.5369      6.8853      6.2011    
  5.0934      5.1213      5.2161      5.3783      5.5509      5.6363      5.5751      5.4013      5.2096      5.0783    
  5.0342      5.0783      5.2096      5.4013      5.5751      5.6363      5.5509      5.3783      5.2161      5.1213    
  5.5935      6.2011      6.8853      7.5369      7.9498      7.9602      7.5658      6.9227      6.2274      5.5903    
  5.0783      4.7188      4.5033      4.3986      4.3591      4.3561      4.4000      4.5249      4.7576      5.1105    
  7.4837      9.0957      10.725      11.925      12.355      11.908      10.725      9.1372      7.5465      6.2274    
  5.2096      4.5033      4.0638      3.8226      3.7450      3.8290      4.0828      4.5265      5.2092      6.1859    
  12.002      15.059      17.540      18.891      18.867      17.490      15.026      12.011      9.1372      6.9227    
  5.4013      4.3986      3.8226      3.5648      3.5677      3.8285      4.3982      5.3830      6.8850      9.0990    
  19.799      23.907      26.611      27.533      26.581      23.854      19.738      15.026      10.725      7.5658    
  5.5751      4.3591      3.7450      3.5677      3.7487      4.3519      5.5514      7.5433      10.731      15.068    
  29.796      34.224      36.572      36.577      34.228      29.779      23.854      17.490      11.908      7.9602    
  5.6363      4.3561      3.8290      3.8285      4.3519      5.6277      7.9585      11.928      17.531      23.893    
  40.643      45.017      46.594      45.055      40.691      34.228      26.581      18.867      12.355      7.9498    
  5.5509      4.4000      4.0828      4.3982      5.5514      7.9585      12.373      18.885      26.581      34.198    
  52.002      56.069      56.069      52.004      45.055      36.577      27.533      18.891      11.925      7.5369    
  5.3783      4.5249      4.5265      5.3830      7.5433      11.928      18.885      27.518      36.561      45.045    
  63.531      66.322      63.427      56.069      46.594      36.572      26.611      17.540      10.725      6.8853    
  5.2161      4.7576      5.2092      6.8850      10.731      17.531      26.581      36.561      46.653      56.191    
  72.980      72.906      66.322      56.069      45.017      34.224      23.907      15.059      9.0957      6.2011    
  5.1213      5.1105      6.1859      9.0990      15.068      23.893      34.198      45.045      56.191      66.480    
  72.980      66.480      56.191      45.045      34.198      23.893      15.068      9.0990      6.1859      5.1105    
  5.1213      6.2011      9.0957      15.059      23.907      34.224      45.017      56.069      66.322      72.906    
  66.480      58.455      48.237      37.723      27.499      18.204      11.127      7.0790      5.3327      4.8668    
  5.3432      7.0785      11.118      18.223      27.551      37.738      48.127      58.233      66.294      69.534    
  56.191      48.237      38.961      29.403      20.310      12.833      8.0030      5.6360      4.7135      4.7141    
  5.6325      7.9940      12.838      20.348      29.452      38.960      48.154      56.073      60.912      60.968    
  45.045      37.723      29.403      21.054      13.814      8.7263      5.9378      4.6407      4.2925      4.6470    
  5.9368      8.7121      13.802      21.066      29.441      37.769      45.078      50.280      52.194      50.266    
  34.198      27.499      20.310      13.814      9.0116      6.1501      4.6331      4.0223      4.0279      4.6422    
  6.1471      8.9897      13.785      20.298      27.520      34.249      39.438      42.265      42.243      39.385    
  23.893      18.204      12.833      8.7263      6.1501      4.6489      3.9026      3.6874      3.9001      4.6538    
  6.1628      8.7295      12.810      18.162      23.858      28.779      32.045      33.177      32.041      28.789    
  15.068      11.127      8.0030      5.9378      4.6331      3.9026      3.5846      3.5794      3.8985      4.6488    
  5.9718      8.0297      11.121      15.028      18.998      22.158      23.885      23.899      22.197      19.050    
  9.0990      7.0790      5.6360      4.6407      4.0223      3.6874      3.5794      3.6831      4.0158      4.6423    
  5.6588      7.1226      9.1399      11.568      13.909      15.593      16.214      15.620      13.932      11.558    
  6.1859      5.3327      4.7135      4.2925      4.0279      3.9001      3.8985      4.0158      4.2637      4.6856    
  5.3368      6.2304      7.3223      8.5429      9.6443      10.308      10.312      9.6417      8.5107      7.2660    
  5.1105      4.8668      4.7141      4.6470      4.6422      4.6538      4.6488      4.6423      4.6856      4.8250    
  5.0800      5.4490      5.9056      6.3787      6.7557      6.8974      6.7388      6.3526      5.8857      5.4521    
  5.1213      5.3432      5.6325      5.9368      6.1471      6.1628      5.9718      5.6588      5.3368      5.0800    
  4.9131      4.8417      4.8622      4.9386      4.9996      4.9898      4.9225      4.8664      4.8784      4.9674    
  6.2011      7.0785      7.9940      8.7121      8.9897      8.7295      8.0297      7.1226      6.2304      5.4490    
  4.8417      4.4264      4.1758      4.0465      4.0049      4.0451      4.1868      4.4549      4.8702      5.4521    
  9.0957      11.118      12.838      13.802      13.785      12.810      11.121      9.1399      7.3223      5.9056    
  4.8622      4.1758      3.7720      3.5837      3.5868      3.7827      4.1900      4.8622      5.8734      7.2660    
  15.059      18.223      20.348      21.066      20.298      18.162      15.028      11.568      8.5429      6.3787    
  4.9386      4.0465      3.5837      3.4433      3.5873      4.0478      4.9284      6.3528      8.5121      11.558    
  23.907      27.551      29.452      29.441      27.520      23.858      18.998      13.909      9.6443      6.7557    
  4.9996      4.0049      3.5868      3.5873      4.0015      4.9869      6.7423      9.6493      13.942      19.050    
  34.224      37.738      38.960      37.769      34.249      28.779      22.158      15.593      10.308      6.8974    
  4.9898      4.0451      3.7827      4.0478      4.9869      6.8911      10.316      15.625      22.196      28.789    
  45.017      48.127      48.154      45.078      39.438      32.045      23.885      16.214      10.312      6.7388    
  4.9225      4.1868      4.1900      4.9284      6.7423      10.316      16.222      23.888      32.024      39.385    
  56.069      58.233      56.073      50.280      42.265      33.177      23.899      15.620      9.6417      6.3526    
  4.8664      4.4549      4.8622      6.3528      9.6493      15.625      23.888      33.152      42.239      50.266    
  66.322      66.294      60.912      52.194      42.243      32.041      22.197      13.932      8.5107      5.8857    
  4.8784      4.8702      5.8734      8.5121      13.942      22.196      32.024      42.239      52.229      60.968    
  72.906      69.534      60.968      50.266      39.385      28.789      19.050      11.558      7.2660      5.4521    
  4.9674      5.4521      7.2660      11.558      19.050      28.789      39.385      50.266      60.968      69.534    
  63.531      56.191      46.653      36.561      26.581      17.531      10.731      6.8850      5.2092      4.7576    
  5.2161      6.8853      10.725      17.540      26.611      36.572      46.594      56.069      63.427      66.322    
  56.191      48.237      38.961      29.403      20.310      12.833      8.0030      5.6360      4.7135      4.7141    
  5.6325      7.9940      12.838      20.348      29.452      38.960      48.154      56.073      60.912      60.968    
  46.653      38.961      30.367      21.795      14.318      9.0033      6.0772      4.7286      4.3669      4.7353    
  6.0752      8.9909      14.320      21.832      30.425      38.999      46.652      52.211      54.296      52.229    
  36.561      29.403      21.795      14.852      9.6062      6.4393      4.7921      4.1326      4.1395      4.8025    
  6.4350      9.5840      14.832      21.808      29.463      36.652      42.322      45.482      45.448      42.239    
  26.581      20.310      14.318      9.6062      6.5867      4.8633      4.0127      3.7755      4.0141      4.8663    
  6.5842      9.5871      14.286      20.293      26.609      32.092      35.783      37.059      35.724      32.024    
  17.531      12.833      9.0033      6.4393      4.8633      3.9825      3.6110      3.6057      3.9770      4.8729    
  6.4582      9.0067      12.807      17.490      22.167      25.867      27.882      27.881      25.874      22.196    
  10.731      8.0030      6.0772      4.7921      4.0127      3.6110      3.4839      3.6043      4.0134      4.8121    
  6.1108      8.0291      10.729      13.911      16.903      19.010      19.775      19.041      16.946      13.942    
  6.8850      5.6360      4.7286      4.1326      3.7755      3.6057      3.6043      3.7693      4.1230      4.7285    
  5.6598      6.9282      8.5490      10.350      11.923      12.845      12.854      11.937      10.341      8.5121    
  5.2092      4.7135      4.3669      4.1395      4.0141      3.9770      4.0134      4.1230      4.3322      4.6848    
  5.2146      5.9120      6.7096      7.5175      8.1496      8.3924      8.1455      7.4949      6.6666      5.8734    
  4.7576      4.7141      4.7353      4.8025      4.8663      4.8729      4.8121      4.7285      4.6848      4.7199    
  4.8449      5.0570      5.3326      5.6061      5.7781      5.7718      5.5910      5.3197      5.0601      4.8702    
  5.2161      5.6325      6.0752      6.4350      6.5842      6.4582      6.1108      5.6598      5.2146      4.8449    
  4.5795      4.4247      4.3656      4.3598      4.3587      4.3490      4.3652      4.4514      4.6238      4.8784    
  6.8853      7.9940      8.9909      9.5840      9.5871      9.0067      8.0291      6.9282      5.9120      5.0570    
  4.4247      4.0091      3.7649      3.6504      3.6489      3.7673      4.0242      4.4447      5.0601      5.8857    
  10.725      12.838      14.320      14.832      14.286      12.807      10.729      8.5490      6.7096      5.3326    
  4.3656      3.7649      3.4416      3.3405      3.4474      3.7728      4.3644      5.3097      6.6666      8.5107    
  17.540      20.348      21.832      21.808      20.293      17.490      13.911      10.350      7.5175      5.6061    
  4.3598      3.6504      3.3405      3.3422      3.6525      4.3554      5.5910      7.4974      10.341      13.932    
  26.611      29.452      30.425      29.463      26.609      22.167      16.903      11.923      8.1496      5.7781    
  4.3587      3.6489      3.4474      3.6525      4.3551      5.7670      8.1494      11.949      16.946      22.197    
  36.572      38.960      38.999      36.652      32.092      25.867      19.010      12.845      8.3924      5.7718    
  4.3490      3.7673      3.7728      4.3554      5.7670      8.3876      12.862      19.044      25.874      32.041    
  46.594      48.154      46.652      42.322      35.783      27.882      19.775      12.854      8.1455      5.5910    
  4.3652      4.0242      4.3644      5.5910      8.1494      12.862      19.777      27.860      35.724      42.243    
  56.069      56.073      52.211      45.482      37.059      27.881      19.041      11.937      7.4949      5.3197    
  4.4514      4.4447      5.3097      7.4974      11.949      19.044      27.860      37.021      45.448      52.194    
  63.427      60.912      54.296      45.448      35.724      25.874      16.946      10.341      6.6666      5.0601    
  4.6238      5.0601      6.6666      10.341      16.946      25.874      35.724      45.448      54.296      60.912    
  66.322      60.968      52.229      42.239      32.024      22.196      13.942      8.5121      5.8734      4.8702    
  4.8784      5.8857      8.5107      13.932      22.197      32.041      42.243      52.194      60.912      66.294    
  52.002      45.045      36.561      27.518      18.885      11.928      7.5433      5.3830      4.5265      4.5249    
  5.3783      7.5369      11.925      18.891      27.533      36.577      45.055      52.004      56.069      56.069    
  45.045      37.723      29.403      21.054      13.814      8.7263      5.9378      4.6407      4.2925      4.6470    
  5.9368      8.7121      13.802      21.066      29.441      37.769      45.078      50.280      52.194      50.266    
  36.561      29.403      21.795      14.852      9.6062      6.4393      4.7921      4.1326      4.1395      4.8025    
  6.4350      9.5840      14.832      21.808      29.463      36.652      42.322      45.482      45.448      42.239    
  27.518      21.054      14.852      9.9238      6.7406      4.9396      4.0549      3.8092      4.0554      4.9436    
  6.7401      9.9025      14.813      21.040      27.572      33.264      37.115      38.441      37.021      33.152    
  18.885      13.814      9.6062      6.7406      4.9978      4.0303      3.6317      3.6269      4.0263      5.0062    
  6.7464      9.5814      13.762      18.852      23.912      27.920      30.097      30.065      27.860      23.888    
  11.928      8.7263      6.4393      4.9396      4.0303      3.5743      3.4346      3.5672      4.0306      4.9546    
  6.4551      8.7215      11.898      15.586      19.016      21.414      22.273      21.426      19.044      15.625    
  7.5433      5.9378      4.7921      4.0549      3.6317      3.4346      3.4300      3.6241      4.0570      4.8113    
  5.9674      7.5652      9.6467      11.922      13.865      14.986      15.001      13.900      11.949      9.6493    
  5.3830      4.6407      4.1326      3.8092      3.6269      3.5672      3.6241      3.7999      4.1206      4.6399    
  5.4035      6.3862      7.5225      8.6659      9.5339      9.8626      9.5393      8.6608      7.4974      6.3528    
  4.5265      4.2925      4.1395      4.0554      4.0263      4.0306      4.0570      4.1206      4.2570      4.5008    
  4.8670      5.3377      5.8511      6.3071      6.5863      6.5837      6.2940      5.8237      5.3097      4.8622    
  4.5249      4.6470      4.8025      4.9436      5.0062      4.9546      4.8113      4.6399      4.5008      4.4262    
  4.4259      4.4986      4.6210      4.7375      4.7828      4.7297      4.6132      4.5014      4.4447      4.4549    
  5.3783      5.9368      6.4350      6.7401      6.7464      6.4551      5.9674      5.4035      4.8670      4.4259    
  4.1080      3.9108      3.8086      3.7652      3.7601      3.8040      3.9244      4.1387      4.4514      4.8664    
  7.5369      8.7121      9.5840      9.9025      9.5814      8.7215      7.5652      6.3862      5.3377      4.4986    
  3.9108      3.5408      3.3368      3.2695      3.3354      3.5452      3.9213      4.5014      5.3197      6.3526    
  11.925      13.802      14.832      14.813      13.762      11.898      9.6467      7.5225      5.8511      4.6210    
  3.8086      3.3368      3.1211      3.1229      3.3404      3.8078      4.6076      5.8237      7.4949      9.6417    
  18.891      21.066      21.808      21.040      18.852      15.586      11.922      8.6659      6.3071      4.7375    
  3.7652      3.2695      3.1229      3.2738      3.7660      4.7287      6.2933      8.6608      11.937      15.620    
  27.533      29.441      29.463      27.572      23.912      19.016      13.865      9.5339      6.5863      4.7828    
  3.7601      3.3354      3.3404      3.7660      4.7777      6.5792      9.5467      13.900      19.041      23.899    
  36.577      37.769      36.652      33.264      27.920      21.414      14.986      9.8626      6.5837      4.7297    
  3.8040      3.5452      3.8078      4.7287      6.5792      9.8704      15.010      21.426      27.881      33.177    
  45.055      45.078      42.322      37.115      30.097      22.273      15.001      9.5393      6.2940      4.6132    
  3.9244      3.9213      4.6076      6.2933      9.5467      15.010      22.268      30.065      37.059      42.265    
  52.004      50.280      45.482      38.441      30.065      21.426      13.900      8.6608      5.8237      4.5014    
  4.1387      4.5014      5.8237      8.6608      13.900      21.426      30.065      38.441      45.482      50.280    
  56.069      52.194      45.448      37.021      27.860      19.044      11.949      7.4974      5.3097      4.4447    
  4.4514      5.3197      7.4949      11.937      19.041      27.881      37.059      45.482      52.211      56.073    
  56.069      50.266      42.239      33.152      23.888      15.625      9.6493      6.3528      4.8622      4.4549    
  4.8664      6.3526      9.6417      15.620      23.899      33.177      42.265      50.280      56.073      58.233    
  40.643      34.198      26.581      18.885      12.373      7.9585      5.5514      4.3982      4.0828      4.4000    
  5.5509      7.9498      12.355      18.867      26.581      34.228      40.691      45.055      46.594      45.017    
  34.198      27.499      20.310      13.814      9.0116      6.1501      4.6331      4.0223      4.0279      4.6422    
  6.1471      8.9897      13.785      20.298      27.520      34.249      39.438      42.265      42.243      39.385    
  26.581      20.310      14.318      9.6062      6.5867      4.8633      4.0127      3.7755      4.0141      4.8663    
  6.5842      9.5871      14.286      20.293      26.609      32.092      35.783      37.059      35.724      32.024    
  18.885      13.814      9.6062      6.7406      4.9978      4.0303      3.6317      3.6269      4.0263      5.0062    
  6.7464      9.5814      13.762      18.852      23.912      27.920      30.097      30.065      27.860      23.888    
  12.373      9.0116      6.5867      4.9978      4.0359      3.5623      3.4213      3.5579      4.0396      5.0102    
  6.5869      8.9814      12.325      16.190      19.778      22.283      23.169      22.268      19.777      16.222    
  7.9585      6.1501      4.8633      4.0303      3.5623      3.3529      3.3501      3.5588      4.0343      4.8749    
  6.1593      7.9536      10.294      12.831      14.984      16.216      16.227      15.010      12.862      10.316    
  5.5514      4.6331      4.0127      3.6317      3.4213      3.3501      3.4152      3.6258      4.0151      4.6476    
  5.5726      6.7572      8.1468      9.5289      10.560      10.949      10.577      9.5467      8.1494      6.7423    
  4.3982      4.0223      3.7755      3.6269      3.5579      3.5588      3.6258      3.7674      4.0111      4.3954    
  4.9406      5.6110      6.3081      6.9146      7.2778      7.2777      6.9099      6.2933      5.5910      4.9284    
  4.0828      4.0279      4.0141      4.0263      4.0396      4.0343      4.0151      4.0111      4.0558      4.1719    
  4.3656      4.6219      4.8950      5.1097      5.1900      5.1022      4.8805      4.6076      4.3644      4.1900    
  4.4000      4.6422      4.8663      5.0062      5.0102      4.8749      4.6476      4.3954      4.1719      4.0058    
  3.9087      3.8784      3.8927      3.9131      3.9102      3.8882      3.8806      3.9213      4.0242      4.1868    
  5.5509      6.1471      6.5842      6.7464      6.5869      6.1593      5.5726      4.9406      4.3656      3.9087    
  3.5860      3.3827      3.2720      3.2345      3.2688      3.3869      3.6018      3.9244      4.3652      4.9225    
  7.9498      8.9897      9.5871      9.5814      8.9814      7.9536      6.7572      5.6110      4.6219      3.8784    
  3.3827      3.0852      2.9434      2.9421      3.0846      3.3860      3.8806      4.6132      5.5910      6.7388    
  12.355      13.785      14.286      13.762      12.325      10.294      8.1468      6.3081      4.8950      3.8927    
  3.2720      2.9434      2.8417      2.9455      3.2720      3.8857      4.8805      6.2940      8.1455      10.312    
  18.867      20.298      20.293      18.852      16.190      12.831      9.5289      6.9146      5.1097      3.9131    
  3.2345      2.9421      2.9455      3.2394      3.9105      5.1002      6.9099      9.5393      12.854      16.214    
  26.581      27.520      26.609      23.912      19.778      14.984      10.560      7.2778      5.1900      3.9102    
  3.2688      3.0846      3.2720      3.9105      5.1871      7.2817      10.577      15.001      19.775      23.885    
  34.228      34.249      32.092      27.920      22.283      16.216      10.949      7.2777      5.1022      3.8882    
  3.3869      3.3860      3.8857      5.1002      7.2817      10.961      16.227      22.273      27.882      32.045    
  40.691      39.438      35.783      30.097      23.169      16.227      10.577      6.9099      4.8805      3.8806    
  3.6018      3.8806      4.8805      6.9099      10.577      16.227      23.169      30.097      35.783      39.438    
  45.055      42.265      37.059      30.065      22.268      15.010      9.5467      6.2933      4.6076      3.9213    
  3.9244      4.6132      6.2940      9.5393      15.001      22.273      30.097      37.115      42.322      45.078    
  46.594      42.243      35.724      27.860      19.777      12.862      8.1494      5.5910      4.3644      4.0242    
  4.3652      5.5910      8.1455      12.854      19.775      27.882      35.783      42.322      46.652      48.154    
  45.017      39.385      32.024      23.888      16.222      10.316      6.7423      4.9284      4.1900      4.1868    
  4.9225      6.7388      10.312      16.214      23.885      32.045      39.438      45.078      48.154      48.127    
  29.796      23.893      17.531      11.928      7.9585      5.6277      4.3519      3.8285      3.8290      4.3561    
  5.6363      7.9602      11.908      17.490      23.854      29.779      34.228      36.577      36.572      34.224    
  23.893      18.204      12.833      8.7263      6.1501      4.6489      3.9026      3.6874      3.9001      4.6538    
  6.1628      8.7295      12.810      18.162      23.858      28.779      32.045      33.177      32.041      28.789    
  17.531      12.833      9.0033      6.4393      4.8633      3.9825      3.6110      3.6057      3.9770      4.8729    
  6.4582      9.0067      12.807      17.490      22.167      25.867      27.882      27.881      25.874      22.196    
  11.928      8.7263      6.4393      4.9396      4.0303      3.5743      3.4346      3.5672      4.0306      4.9546    
  6.4551      8.7215      11.898      15.586      19.016      21.414      22.273      21.426      19.044      15.625    
  7.9585      6.1501      4.8633      4.0303      3.5623      3.3529      3.3501      3.5588      4.0343      4.8749    
  6.1593      7.9536      10.294      12.831      14.984      16.216      16.227      15.010      12.862      10.316    
  5.6277      4.6489      3.9825      3.5743      3.3529      3.2811      3.3508      3.5718      3.9836      4.6574    
  5.6416      6.9001      8.3808      9.8490      10.942      11.353      10.961      9.8704      8.3876      6.8911    
  4.3519      3.9026      3.6110      3.4346      3.3501      3.3508      3.4344      3.6079      3.9010      4.3595    
  5.0037      5.7817      6.5805      7.2724      7.6854      7.6913      7.2817      6.5792      5.7670      4.9869    
  3.8285      3.6874      3.6057      3.5672      3.5588      3.5718      3.6079      3.6825      3.8203      4.0447    
  4.3608      4.7383      5.1077      5.3800      5.4797      5.3767      5.1002      4.7287      4.3554      4.0478    
  3.8290      3.9001      3.9770      4.0306      4.0343      3.9836      3.9010      3.8203      3.7683      3.7611    
  3.8047      3.8907      3.9882      4.0519      4.0484      3.9807      3.8857      3.8078      3.7728      3.7827    
  4.3561      4.6538      4.8729      4.9546      4.8749      4.6574      4.3595      4.0447      3.7611      3.5358    
  3.3793      3.2872      3.2435      3.2303      3.2418      3.2883      3.3860      3.5452      3.7673      4.0451    
  5.6363      6.1628      6.4582      6.4551      6.1593      5.6416      5.0037      4.3608      3.8047      3.3793    
  3.0846      2.9005      2.8102      2.8092      2.9011      3.0908      3.3869      3.8040      4.3490      4.9898    
  7.9602      8.7295      9.0067      8.7215      7.9536      6.9001      5.7817      4.7383      3.8907      3.2872    
  2.9005      2.6850      2.6146      2.6840      2.9007      3.2883      3.8882      4.7297      5.7718      6.8974    
  11.908      12.810      12.807      11.898      10.294      8.3808      6.5805      5.1077      3.9882      3.2435    
  2.8102      2.6146      2.6165      2.8126      3.2408      3.9807      5.1022      6.5837      8.3924      10.308    
  17.490      18.162      17.490      15.586      12.831      9.8490      7.2724      5.3800      4.0519      3.2303    
  2.8092      2.6840      2.8126      3.2312      4.0479      5.3767      7.2777      9.8626      12.845      15.593    
  23.854      23.858      22.167      19.016      14.984      10.942      7.6854      5.4797      4.0484      3.2418    
  2.9011      2.9007      3.2408      4.0479      5.4818      7.6913      10.949      14.986      19.010      22.158    
  29.779      28.779      25.867      21.414      16.216      11.353      7.6913      5.3767      3.9807      3.2883    
  3.0908      3.2883      3.9807      5.3767      7.6913      11.353      16.216      21.414      25.867      28.779    
  34.228      32.045      27.882      22.273      16.227      10.961      7.2817      5.1002      3.8857      3.3860    
  3.3869      3.8882      5.1022      7.2777      10.949      16.216      22.283      27.920      32.092      34.249    
  36.577      33.177      27.881      21.426      15.010      9.8704      6.5792      4.7287      3.8078      3.5452    
  3.8040      4.7297      6.5837      9.8626      14.986      21.414      27.920      33.264      36.652      37.769    
  36.572      32.041      25.874      19.044      12.862      8.3876      5.7670      4.3554      3.7728      3.7673    
  4.3490      5.7718      8.3924      12.845      19.010      25.867      32.092      36.652      38.999      38.960    
  34.224      28.789      22.196      15.625      10.316      6.8911      4.9869      4.0478      3.7827      4.0451    
  4.9898      6.8974      10.308      15.593      22.158      28.779      34.249      37.769      38.960      37.738    
  19.799      15.068      10.731      7.5433      5.5514      4.3519      3.7487      3.5677      3.7450      4.3591    
  5.5751      7.5658      10.725      15.026      19.738      23.854      26.581      27.533      26.611      23.907    
  15.068      11.127      8.0030      5.9378      4.6331      3.9026      3.5846      3.5794      3.8985      4.6488    
  5.9718      8.0297      11.121      15.028      18.998      22.158      23.885      23.899      22.197      19.050    
  10.731      8.0030      6.0772      4.7921      4.0127      3.6110      3.4839      3.6043      4.0134      4.8121    