fcc Au                                  
   4.00000000000000     
     0.000000    0.500000    0.500000
     0.500000    0.000000    0.500000
     0.500000    0.500000    0.000000
   Au
     1
Direct
  0.000000  0.000000  0.000000
 
   20   20   20
 0.76738770594E+02 0.72979608365E+02 0.63531390783E+02 0.52002477904E+02 0.40642516983E+02
 0.29795804901E+02 0.19799165722E+02 0.12002021891E+02 0.74837198699E+01 0.55935276020E+01
 0.50933605599E+01 0.55935276020E+01 0.74837198699E+01 0.12002021891E+02 0.19799165722E+02
 0.29795804901E+02 0.40642516983E+02 0.52002477904E+02 0.63531390783E+02 0.72979608365E+02
 0.72979608365E+02 0.66480184051E+02 0.56191215539E+02 0.45045154291E+02 0.34198343560E+02
 0.23892848623E+02 0.15067957269E+02 0.90989819074E+01 0.61859150374E+01 0.51104650806E+01
 0.51213278512E+01 0.62011390827E+01 0.90956977285E+01 0.15058619447E+02 0.23907333958E+02
 0.34224107783E+02 0.45017380592E+02 0.56069207411E+02 0.66321743921E+02 0.72905816145E+02
 0.63531390783E+02 0.56191215539E+02 0.46652767036E+02 0.36561122879E+02 0.26581131816E+02
 0.17530777573E+02 0.10730736766E+02 0.68850387261E+01 0.52092448707E+01 0.47576266410E+01
 0.52160913866E+01 0.68852534387E+01 0.10724868953E+02 0.17539832892E+02 0.26610811986E+02
 0.36572210013E+02 0.46593745609E+02 0.56068510582E+02 0.63427385244E+02 0.66321743921E+02
 0.52002477904E+02 0.45045154291E+02 0.36561122879E+02 0.27518316269E+02 0.18885066383E+02
 0.11928492445E+02 0.75433131377E+01 0.53830010634E+01 0.45264606484E+01 0.45248961564E+01
 0.53782610042E+01 0.75368805119E+01 0.11925244729E+02 0.18890607549E+02 0.27532840771E+02
 0.36577335521E+02 0.45054662057E+02 0.52004068877E+02 0.56068510582E+02 0.56069207411E+02
 0.40642516983E+02 0.34198343560E+02 0.26581131816E+02 0.18885066383E+02 0.12373191244E+02
 0.79584750943E+01 0.55513985128E+01 0.43981524637E+01 0.40827799686E+01 0.43999647400E+01
 0.55509283360E+01 0.79497980205E+01 0.12354905314E+02 0.18866909942E+02 0.26581229899E+02
 0.34227956657E+02 0.40690894786E+02 0.45054662057E+02 0.46593745609E+02 0.45017380592E+02
 0.29795804901E+02 0.23892848623E+02 0.17530777573E+02 0.11928492445E+02 0.79584750943E+01
 0.56277140027E+01 0.43518828941E+01 0.38284999347E+01 0.38289912954E+01 0.43561410964E+01
 0.56363220579E+01 0.79601861064E+01 0.11908483142E+02 0.17490319569E+02 0.23853565419E+02
 0.29778823965E+02 0.34227956657E+02 0.36577335521E+02 0.36572210013E+02 0.34224107783E+02
 0.19799165722E+02 0.15067957269E+02 0.10730736766E+02 0.75433131377E+01 0.55513985128E+01
 0.43518828941E+01 0.37487291083E+01 0.35677329019E+01 0.37450387433E+01 0.43590623265E+01
 0.55751312447E+01 0.75657939692E+01 0.10725489325E+02 0.15026435275E+02 0.19738393564E+02
 0.23853565419E+02 0.26581229899E+02 0.27532840771E+02 0.26610811986E+02 0.23907333958E+02
 0.12002021891E+02 0.90989819074E+01 0.68850387261E+01 0.53830010634E+01 0.43981524637E+01
 0.38284999347E+01 0.35677329019E+01 0.35647593874E+01 0.38225947619E+01 0.43985691143E+01
 0.54012711343E+01 0.69226686135E+01 0.91371853396E+01 0.12011148741E+02 0.15026435275E+02
 0.17490319569E+02 0.18866909942E+02 0.18890607549E+02 0.17539832892E+02 0.15058619447E+02
 0.74837198699E+01 0.61859150374E+01 0.52092448707E+01 0.45264606484E+01 0.40827799686E+01
 0.38289912954E+01 0.37450387433E+01 0.38225947619E+01 0.40637734493E+01 0.45033290060E+01
 0.52095771480E+01 0.62274292557E+01 0.75464877950E+01 0.91371853396E+01 0.10725489325E+02
 0.11908483142E+02 0.12354905314E+02 0.11925244729E+02 0.10724868953E+02 0.90956977285E+01
 0.55935276020E+01 0.51104650806E+01 0.47576266410E+01 0.45248961564E+01 0.43999647400E+01
 0.43561410964E+01 0.43590623265E+01 0.43985691143E+01 0.45033290060E+01 0.47187926064E+01
 0.50783022235E+01 0.55903488543E+01 0.62274292557E+01 0.69226686135E+01 0.75657939692E+01
 0.79601861064E+01 0.79497980205E+01 0.75368805119E+01 0.68852534387E+01 0.62011390827E+01
 0.50933605599E+01 0.51213278512E+01 0.52160913866E+01 0.53782610042E+01 0.55509283360E+01
 0.56363220579E+01 0.55751312447E+01 0.54012711343E+01 0.52095771480E+01 0.50783022235E+01
 0.50341517518E+01 0.50783022235E+01 0.52095771480E+01 0.54012711343E+01 0.55751312447E+01
 0.56363220579E+01 0.55509283360E+01 0.53782610042E+01 0.52160913866E+01 0.51213278512E+01
 0.55935276020E+01 0.62011390827E+01 0.68852534387E+01 0.75368805119E+01 0.79497980205E+01
 0.79601861064E+01 0.75657939692E+01 0.69226686135E+01 0.62274292557E+01 0.55903488543E+01
 0.50783022235E+01 0.47187926064E+01 0.45033290060E+01 0.43985691143E+01 0.43590623265E+01
 0.43561410964E+01 0.43999647400E+01 0.45248961564E+01 0.47576266410E+01 0.51104650806E+01
 0.74837198699E+01 0.90956977285E+01 0.10724868953E+02 0.11925244729E+02 0.12354905314E+02
 0.11908483142E+02 0.10725489325E+02 0.91371853396E+01 0.75464877950E+01 0.62274292557E+01
 0.52095771480E+01 0.45033290060E+01 0.40637734493E+01 0.38225947619E+01 0.37450387433E+01
 0.38289912954E+01 0.40827799686E+01 0.45264606484E+01 0.52092448707E+01 0.61859150374E+01
 0.12002021891E+02 0.15058619447E+02 0.17539832892E+02 0.18890607549E+02 0.18866909942E+02
 0.17490319569E+02 0.15026435275E+02 0.12011148741E+02 0.91371853396E+01 0.69226686135E+01
 0.54012711343E+01 0.43985691143E+01 0.38225947619E+01 0.35647593874E+01 0.35677329019E+01
 0.38284999347E+01 0.43981524637E+01 0.53830010634E+01 0.68850387261E+01 0.90989819074E+01
 0.19799165722E+02 0.23907333958E+02 0.26610811986E+02 0.27532840771E+02 0.26581229899E+02
 0.23853565419E+02 0.19738393564E+02 0.15026435275E+02 0.10725489325E+02 0.75657939692E+01
 0.55751312447E+01 0.43590623265E+01 0.37450387433E+01 0.35677329019E+01 0.37487291083E+01
 0.43518828941E+01 0.55513985128E+01 0.75433131377E+01 0.10730736766E+02 0.15067957269E+02
 0.29795804901E+02 0.34224107783E+02 0.36572210013E+02 0.36577335521E+02 0.34227956657E+02
 0.29778823965E+02 0.23853565419E+02 0.17490319569E+02 0.11908483142E+02 0.79601861064E+01
 0.56363220579E+01 0.43561410964E+01 0.38289912954E+01 0.38284999347E+01 0.43518828941E+01
 0.56277140027E+01 0.79584750943E+01 0.11928492445E+02 0.17530777573E+02 0.23892848623E+02
 0.40642516983E+02 0.45017380592E+02 0.46593745609E+02 0.45054662057E+02 0.40690894786E+02
 0.34227956657E+02 0.26581229899E+02 0.18866909942E+02 0.12354905314E+02 0.79497980205E+01
 0.55509283360E+01 0.43999647400E+01 0.40827799686E+01 0.43981524637E+01 0.55513985128E+01
 0.79584750943E+01 0.12373191244E+02 0.18885066383E+02 0.26581131816E+02 0.34198343560E+02
 0.52002477904E+02 0.56069207411E+02 0.56068510582E+02 0.52004068877E+02 0.45054662057E+02
 0.36577335521E+02 0.27532840771E+02 0.18890607549E+02 0.11925244729E+02 0.75368805119E+01
 0.53782610042E+01 0.45248961564E+01 0.45264606484E+01 0.53830010634E+01 0.75433131377E+01
 0.11928492445E+02 0.18885066383E+02 0.27518316269E+02 0.36561122879E+02 0.45045154291E+02
 0.63531390783E+02 0.66321743921E+02 0.63427385244E+02 0.56068510582E+02 0.46593745609E+02
 0.36572210013E+02 0.26610811986E+02 0.17539832892E+02 0.10724868953E+02 0.68852534387E+01
 0.52160913866E+01 0.47576266410E+01 0.52092448707E+01 0.68850387261E+01 0.10730736766E+02
 0.17530777573E+02 0.26581131816E+02 0.36561122879E+02 0.46652767036E+02 0.56191215539E+02
 0.72979608365E+02 0.72905816145E+02 0.66321743921E+02 0.56069207411E+02 0.45017380592E+02
 0.34224107783E+02 0.23907333958E+02 0.15058619447E+02 0.90956977285E+01 0.62011390827E+01
 0.51213278512E+01 0.51104650806E+01 0.61859150374E+01 0.90989819074E+01 0.15067957269E+02
 0.23892848623E+02 0.34198343560E+02 0.45045154291E+02 0.56191215539E+02 0.66480184051E+02
 0.72979608365E+02 0.66480184051E+02 0.56191215539E+02 0.45045154291E+02 0.34198343560E+02
 0.23892848623E+02 0.15067957269E+02 0.90989819074E+01 0.61859150374E+01 0.51104650806E+01
 0.51213278512E+01 0.62011390827E+01 0.90956977285E+01 0.15058619447E+02 0.23907333958E+02
 0.34224107783E+02 0.45017380592E+02 0.56069207411E+02 0.66321743921E+02 0.72905816145E+02
 0.66480184051E+02 0.58454722095E+02 0.48237455391E+02 0.37722681049E+02 0.27498583497E+02
 0.18203829564E+02 0.11127002830E+02 0.70790025027E+01 0.53327068140E+01 0.48668147255E+01
 0.53431521220E+01 0.70785448834E+01 0.11118427172E+02 0.18222725774E+02 0.27551332238E+02
 0.37738177916E+02 0.48126778495E+02 0.58232753871E+02 0.66294024676E+02 0.69534322706E+02
 0.56191215539E+02 0.48237455391E+02 0.38961175861E+02 0.29403480152E+02 0.20310155338E+02
 0.12833311049E+02 0.80030324545E+01 0.56359797246E+01 0.47134652545E+01 0.47141213092E+01
 0.56325170022E+01 0.79940363530E+01 0.12838029457E+02 0.20347536459E+02 0.29451689490E+02
 0.38960429849E+02 0.48154083891E+02 0.56072876261E+02 0.60911711119E+02 0.60967848858E+02
 0.45045154291E+02 0.37722681049E+02 0.29403480152E+02 0.21054429592E+02 0.13814483461E+02
 0.87262591214E+01 0.59378052250E+01 0.46407100815E+01 0.42925160039E+01 0.46469821371E+01
 0.59367681095E+01 0.87121213187E+01 0.13802284018E+02 0.21065636246E+02 0.29441499017E+02
 0.37768804725E+02 0.45078431101E+02 0.50280103344E+02 0.52193791246E+02 0.50265597734E+02
 0.34198343560E+02 0.27498583497E+02 0.20310155338E+02 0.13814483461E+02 0.90116386985E+01
 0.61501424540E+01 0.46330804138E+01 0.40222881444E+01 0.40279471947E+01 0.46421649398E+01
 0.61470784484E+01 0.89897361280E+01 0.13785438450E+02 0.20297580670E+02 0.27520005466E+02
 0.34249234031E+02 0.39437856996E+02 0.42265485791E+02 0.42242951355E+02 0.39384796806E+02
 0.23892848623E+02 0.18203829564E+02 0.12833311049E+02 0.87262591214E+01 0.61501424540E+01
 0.46489464719E+01 0.39026190964E+01 0.36874484068E+01 0.39000887619E+01 0.46537598959E+01
 0.61628380045E+01 0.87294578427E+01 0.12810307118E+02 0.18161777276E+02 0.23858196834E+02
 0.28778739862E+02 0.32045342901E+02 0.33177422017E+02 0.32041381214E+02 0.28789294384E+02
 0.15067957269E+02 0.11127002830E+02 0.80030324545E+01 0.59378052250E+01 0.46330804138E+01
 0.39026190964E+01 0.35846410422E+01 0.35794447404E+01 0.38985318416E+01 0.46487717482E+01
 0.59718348103E+01 0.80297462285E+01 0.11120966115E+02 0.15028087185E+02 0.18997658653E+02
 0.22157685646E+02 0.23884771692E+02 0.23899032550E+02 0.22197345605E+02 0.19049624645E+02
 0.90989819074E+01 0.70790025027E+01 0.56359797246E+01 0.46407100815E+01 0.40222881444E+01
 0.36874484068E+01 0.35794447404E+01 0.36830526584E+01 0.40158312948E+01 0.46422517259E+01
 0.56588444485E+01 0.71225686699E+01 0.91399062944E+01 0.11567807591E+02 0.13908840832E+02
 0.15592861306E+02 0.16214353328E+02 0.15620258374E+02 0.13931983867E+02 0.11557572394E+02
 0.61859150374E+01 0.53327068140E+01 0.47134652545E+01 0.42925160039E+01 0.40279471947E+01
 0.39000887619E+01 0.38985318416E+01 0.40158312948E+01 0.42636894929E+01 0.46855721589E+01
 0.53367765613E+01 0.62303537180E+01 0.73223398060E+01 0.85429401131E+01 0.96442631864E+01
 0.10307745950E+02 0.10311897495E+02 0.96416912316E+01 0.85106524643E+01 0.72660322876E+01
 0.51104650806E+01 0.48668147255E+01 0.47141213092E+01 0.46469821371E+01 0.46421649398E+01
 0.46537598959E+01 0.46487717482E+01 0.46422517259E+01 0.46855721589E+01 0.48249570606E+01
 0.50799942588E+01 0.54489759213E+01 0.59055629088E+01 0.63787288028E+01 0.67556821580E+01
 0.68973536164E+01 0.67387730306E+01 0.63525780992E+01 0.58856682252E+01 0.54521159301E+01
 0.51213278512E+01 0.53431521220E+01 0.56325170022E+01 0.59367681095E+01 0.61470784484E+01
 0.61628380045E+01 0.59718348103E+01 0.56588444485E+01 0.53367765613E+01 0.50799942588E+01
 0.49131317149E+01 0.48417260768E+01 0.48622227189E+01 0.49385693097E+01 0.49995713026E+01
 0.49897563833E+01 0.49225415728E+01 0.48663783864E+01 0.48783815041E+01 0.49673563873E+01
 0.62011390827E+01 0.70785448834E+01 0.79940363530E+01 0.87121213187E+01 0.89897361280E+01
 0.87294578427E+01 0.80297462285E+01 0.71225686699E+01 0.62303537180E+01 0.54489759213E+01
 0.48417260768E+01 0.44264341047E+01 0.41757823198E+01 0.40464834687E+01 0.40048652690E+01
 0.40451340928E+01 0.41867941225E+01 0.44549086635E+01 0.48702082582E+01 0.54521159301E+01
 0.90956977285E+01 0.11118427172E+02 0.12838029457E+02 0.13802284018E+02 0.13785438450E+02
 0.12810307118E+02 0.11120966115E+02 0.91399062944E+01 0.73223398060E+01 0.59055629088E+01
 0.48622227189E+01 0.41757823198E+01 0.37720157565E+01 0.35836724423E+01 0.35867754693E+01
 0.37826879592E+01 0.41900273423E+01 0.48622218671E+01 0.58733715439E+01 0.72660322876E+01
 0.15058619447E+02 0.18222725774E+02 0.20347536459E+02 0.21065636246E+02 0.20297580670E+02
 0.18161777276E+02 0.15028087185E+02 0.11567807591E+02 0.85429401131E+01 0.63787288028E+01
 0.49385693097E+01 0.40464834687E+01 0.35836724423E+01 0.34433378111E+01 0.35873324417E+01
 0.40478183958E+01 0.49283932023E+01 0.63527849892E+01 0.85121078169E+01 0.11557572394E+02
 0.23907333958E+02 0.27551332238E+02 0.29451689490E+02 0.29441499017E+02 0.27520005466E+02
 0.23858196834E+02 0.18997658653E+02 0.13908840832E+02 0.96442631864E+01 0.67556821580E+01
 0.49995713026E+01 0.40048652690E+01 0.35867754693E+01 0.35873324417E+01 0.40015016505E+01
 0.49868861534E+01 0.67423099376E+01 0.96493001572E+01 0.13942450632E+02 0.19049624645E+02
 0.34224107783E+02 0.37738177916E+02 0.38960429849E+02 0.37768804725E+02 0.34249234031E+02
 0.28778739862E+02 0.22157685646E+02 0.15592861306E+02 0.10307745950E+02 0.68973536164E+01
 0.49897563833E+01 0.40451340928E+01 0.37826879592E+01 0.40478183958E+01 0.49868861534E+01
 0.68910532496E+01 0.10315605285E+02 0.15625052065E+02 0.22195517785E+02 0.28789294384E+02
 0.45017380592E+02 0.48126778495E+02 0.48154083891E+02 0.45078431101E+02 0.39437856996E+02
 0.32045342901E+02 0.23884771692E+02 0.16214353328E+02 0.10311897495E+02 0.67387730306E+01
 0.49225415728E+01 0.41867941225E+01 0.41900273423E+01 0.49283932023E+01 0.67423099376E+01
 0.10315605285E+02 0.16222255867E+02 0.23888235162E+02 0.32024378048E+02 0.39384796806E+02
 0.56069207411E+02 0.58232753871E+02 0.56072876261E+02 0.50280103344E+02 0.42265485791E+02
 0.33177422017E+02 0.23899032550E+02 0.15620258374E+02 0.96416912316E+01 0.63525780992E+01
 0.48663783864E+01 0.44549086635E+01 0.48622218671E+01 0.63527849892E+01 0.96493001572E+01
 0.15625052065E+02 0.23888235162E+02 0.33151701034E+02 0.42239223339E+02 0.50265597734E+02
 0.66321743921E+02 0.66294024676E+02 0.60911711119E+02 0.52193791246E+02 0.42242951355E+02
 0.32041381214E+02 0.22197345605E+02 0.13931983867E+02 0.85106524643E+01 0.58856682252E+01
 0.48783815041E+01 0.48702082582E+01 0.58733715439E+01 0.85121078169E+01 0.13942450632E+02
 0.22195517785E+02 0.32024378048E+02 0.42239223339E+02 0.52228769094E+02 0.60967848858E+02
 0.72905816145E+02 0.69534322706E+02 0.60967848858E+02 0.50265597734E+02 0.39384796806E+02
 0.28789294384E+02 0.19049624645E+02 0.11557572394E+02 0.72660322876E+01 0.54521159301E+01
 0.49673563873E+01 0.54521159301E+01 0.72660322876E+01 0.11557572394E+02 0.19049624645E+02
 0.28789294384E+02 0.39384796806E+02 0.50265597734E+02 0.60967848858E+02 0.69534322706E+02
 0.63531390783E+02 0.56191215539E+02 0.46652767036E+02 0.36561122879E+02 0.26581131816E+02
 0.17530777573E+02 0.10730736766E+02 0.68850387261E+01 0.52092448707E+01 0.47576266410E+01
 0.52160913866E+01 0.68852534387E+01 0.10724868953E+02 0.17539832892E+02 0.26610811986E+02
 0.36572210013E+02 0.46593745609E+02 0.56068510582E+02 0.63427385244E+02 0.66321743921E+02
 0.56191215539E+02 0.48237455391E+02 0.38961175861E+02 0.29403480152E+02 0.20310155338E+02
 0.12833311049E+02 0.80030324545E+01 0.56359797246E+01 0.47134652545E+01 0.47141213092E+01
 0.56325170022E+01 0.79940363530E+01 0.12838029457E+02 0.20347536459E+02 0.29451689490E+02
 0.38960429849E+02 0.48154083891E+02 0.56072876261E+02 0.60911711119E+02 0.60967848858E+02
 0.46652767036E+02 0.38961175861E+02 0.30367199918E+02 0.21795249361E+02 0.14318404871E+02
 0.90033134989E+01 0.60771538264E+01 0.47285744025E+01 0.43669273141E+01 0.47353470081E+01
 0.60752324433E+01 0.89909108495E+01 0.14319749496E+02 0.21831932922E+02 0.30424719443E+02
 0.38999341176E+02 0.46651574338E+02 0.52211072221E+02 0.54295609553E+02 0.52228769094E+02
 0.36561122879E+02 0.29403480152E+02 0.21795249361E+02 0.14851742247E+02 0.96061776018E+01
 0.64393329841E+01 0.47920831256E+01 0.41325764040E+01 0.41394839521E+01 0.48025417255E+01
 0.64350166264E+01 0.95839623325E+01 0.14832248009E+02 0.21808080765E+02 0.29462940914E+02
 0.36651852410E+02 0.42321792055E+02 0.45481611284E+02 0.45448289120E+02 0.42239223339E+02
 0.26581131816E+02 0.20310155338E+02 0.14318404871E+02 0.96061776018E+01 0.65866763499E+01
 0.48633253177E+01 0.40127246502E+01 0.37755052297E+01 0.40141317656E+01 0.48662956002E+01
 0.65841725448E+01 0.95870840850E+01 0.14286127061E+02 0.20292779993E+02 0.26609108714E+02
 0.32092066959E+02 0.35782551227E+02 0.37058895584E+02 0.35724026379E+02 0.32024378048E+02
 0.17530777573E+02 0.12833311049E+02 0.90033134989E+01 0.64393329841E+01 0.48633253177E+01
 0.39824563514E+01 0.36109874688E+01 0.36057072505E+01 0.39770350586E+01 0.48729300494E+01
 0.64582196783E+01 0.90066589823E+01 0.12806820788E+02 0.17489626192E+02 0.22167064096E+02
 0.25866978497E+02 0.27882255485E+02 0.27881219363E+02 0.25873939540E+02 0.22195517785E+02
 0.10730736766E+02 0.80030324545E+01 0.60771538264E+01 0.47920831256E+01 0.40127246502E+01
 0.36109874688E+01 0.34839226383E+01 0.36042723277E+01 0.40134142106E+01 0.48120638848E+01
 0.61108239884E+01 0.80291060803E+01 0.10729341747E+02 0.13911343239E+02 0.16902664214E+02
 0.19010132232E+02 0.19775212370E+02 0.19040621390E+02 0.16946086437E+02 0.13942450632E+02
 0.68850387261E+01 0.56359797246E+01 0.47285744025E+01 0.41325764040E+01 0.37755052297E+01
 0.36057072505E+01 0.36042723277E+01 0.37692856076E+01 0.41230065616E+01 0.47285254263E+01
 0.56598030069E+01 0.69282449662E+01 0.85489915208E+01 0.10349591579E+02 0.11922551493E+02
 0.12844810182E+02 0.12854482908E+02 0.11936528484E+02 0.10341131264E+02 0.85121078169E+01
 0.52092448707E+01 0.47134652545E+01 0.43669273141E+01 0.41394839521E+01 0.40141317656E+01
 0.39770350586E+01 0.40134142106E+01 0.41230065616E+01 0.43322018424E+01 0.46847595849E+01
 0.52145508675E+01 0.59119930142E+01 0.67095522920E+01 0.75175151378E+01 0.81496425044E+01
 0.83923734148E+01 0.81455165391E+01 0.74949140087E+01 0.66665822813E+01 0.58733715439E+01
 0.47576266410E+01 0.47141213092E+01 0.47353470081E+01 0.48025417255E+01 0.48662956002E+01
 0.48729300494E+01 0.48120638848E+01 0.47285254263E+01 0.46847595849E+01 0.47198664415E+01
 0.48449463200E+01 0.50570119166E+01 0.53325960706E+01 0.56060978977E+01 0.57781478684E+01
 0.57718208764E+01 0.55909759732E+01 0.53196876430E+01 0.50600525926E+01 0.48702082582E+01
 0.52160913866E+01 0.56325170022E+01 0.60752324433E+01 0.64350166264E+01 0.65841725448E+01
 0.64582196783E+01 0.61108239884E+01 0.56598030069E+01 0.52145508675E+01 0.48449463200E+01
 0.45795346003E+01 0.44246698414E+01 0.43655742534E+01 0.43598365796E+01 0.43586753295E+01
 0.43490463769E+01 0.43652432159E+01 0.44514005045E+01 0.46238335743E+01 0.48783815041E+01
 0.68852534387E+01 0.79940363530E+01 0.89909108495E+01 0.95839623325E+01 0.95870840850E+01
 0.90066589823E+01 0.80291060803E+01 0.69282449662E+01 0.59119930142E+01 0.50570119166E+01
 0.44246698414E+01 0.40091390322E+01 0.37649375482E+01 0.36504265763E+01 0.36489140614E+01
 0.37672794644E+01 0.40241819478E+01 0.44446756104E+01 0.50600525926E+01 0.58856682252E+01
 0.10724868953E+02 0.12838029457E+02 0.14319749496E+02 0.14832248009E+02 0.14286127061E+02
 0.12806820788E+02 0.10729341747E+02 0.85489915208E+01 0.67095522920E+01 0.53325960706E+01
 0.43655742534E+01 0.37649375482E+01 0.34416232981E+01 0.33405307847E+01 0.34474296212E+01
 0.37727501550E+01 0.43644197255E+01 0.53096631669E+01 0.66665822813E+01 0.85106524643E+01
 0.17539832892E+02 0.20347536459E+02 0.21831932922E+02 0.21808080765E+02 0.20292779993E+02
 0.17489626192E+02 0.13911343239E+02 0.10349591579E+02 0.75175151378E+01 0.56060978977E+01
 0.43598365796E+01 0.36504265763E+01 0.33405307847E+01 0.33422338061E+01 0.36524577729E+01
 0.43553932968E+01 0.55910369637E+01 0.74974271092E+01 0.10341131264E+02 0.13931983867E+02
 0.26610811986E+02 0.29451689490E+02 0.30424719443E+02 0.29462940914E+02 0.26609108714E+02
 0.22167064096E+02 0.16902664214E+02 0.11922551493E+02 0.81496425044E+01 0.57781478684E+01
 0.43586753295E+01 0.36489140614E+01 0.34474296212E+01 0.36524577729E+01 0.43550925857E+01
 0.57670193735E+01 0.81494117340E+01 0.11949409332E+02 0.16946086437E+02 0.22197345605E+02
 0.36572210013E+02 0.38960429849E+02 0.38999341176E+02 0.36651852410E+02 0.32092066959E+02
 0.25866978497E+02 0.19010132232E+02 0.12844810182E+02 0.83923734148E+01 0.57718208764E+01
 0.43490463769E+01 0.37672794644E+01 0.37727501550E+01 0.43553932968E+01 0.57670193735E+01
 0.83875865945E+01 0.12862186374E+02 0.19043533231E+02 0.25873939540E+02 0.32041381214E+02
 0.46593745609E+02 0.48154083891E+02 0.46651574338E+02 0.42321792055E+02 0.35782551227E+02
 0.27882255485E+02 0.19775212370E+02 0.12854482908E+02 0.81455165391E+01 0.55909759732E+01
 0.43652432159E+01 0.40241819478E+01 0.43644197255E+01 0.55910369637E+01 0.81494117340E+01
 0.12862186374E+02 0.19777030402E+02 0.27859622342E+02 0.35724026379E+02 0.42242951355E+02
 0.56068510582E+02 0.56072876261E+02 0.52211072221E+02 0.45481611284E+02 0.37058895584E+02
 0.27881219363E+02 0.19040621390E+02 0.11936528484E+02 0.74949140087E+01 0.53196876430E+01
 0.44514005045E+01 0.44446756104E+01 0.53096631669E+01 0.74974271092E+01 0.11949409332E+02
 0.19043533231E+02 0.27859622342E+02 0.37021048019E+02 0.45448289120E+02 0.52193791246E+02
 0.63427385244E+02 0.60911711119E+02 0.54295609553E+02 0.45448289120E+02 0.35724026379E+02
 0.25873939540E+02 0.16946086437E+02 0.10341131264E+02 0.66665822813E+01 0.50600525926E+01
 0.46238335743E+01 0.50600525926E+01 0.66665822813E+01 0.10341131264E+02 0.16946086437E+02
 0.25873939540E+02 0.35724026379E+02 0.45448289120E+02 0.54295609553E+02 0.60911711119E+02
 0.66321743921E+02 0.60967848858E+02 0.52228769094E+02 0.42239223339E+02 0.32024378048E+02
 0.22195517785E+02 0.13942450632E+02 0.85121078169E+01 0.58733715439E+01 0.48702082582E+01
 0.48783815041E+01 0.58856682252E+01 0.85106524643E+01 0.13931983867E+02 0.22197345605E+02
 0.32041381214E+02 0.42242951355E+02 0.52193791246E+02 0.60911711119E+02 0.66294024676E+02
 0.52002477904E+02 0.45045154291E+02 0.36561122879E+02 0.27518316269E+02 0.18885066383E+02
 0.11928492445E+02 0.75433131377E+01 0.53830010634E+01 0.45264606484E+01 0.45248961564E+01
 0.53782610042E+01 0.75368805119E+01 0.11925244729E+02 0.18890607549E+02 0.27532840771E+02
 0.36577335521E+02 0.45054662057E+02 0.52004068877E+02 0.56068510582E+02 0.56069207411E+02
 0.45045154291E+02 0.37722681049E+02 0.29403480152E+02 0.21054429592E+02 0.13814483461E+02
 0.87262591214E+01 0.59378052250E+01 0.46407100815E+01 0.42925160039E+01 0.46469821371E+01
 0.59367681095E+01 0.87121213187E+01 0.13802284018E+02 0.21065636246E+02 0.29441499017E+02
 0.37768804725E+02 0.45078431101E+02 0.50280103344E+02 0.52193791246E+02 0.50265597734E+02
 0.36561122879E+02 0.29403480152E+02 0.21795249361E+02 0.14851742247E+02 0.96061776018E+01
 0.64393329841E+01 0.47920831256E+01 0.41325764040E+01 0.41394839521E+01 0.48025417255E+01
 0.64350166264E+01 0.95839623325E+01 0.14832248009E+02 0.21808080765E+02 0.29462940914E+02
 0.36651852410E+02 0.42321792055E+02 0.45481611284E+02 0.45448289120E+02 0.42239223339E+02
 0.27518316269E+02 0.21054429592E+02 0.14851742247E+02 0.99238148390E+01 0.67405764700E+01
 0.49396209293E+01 0.40548777616E+01 0.38091675436E+01 0.40553879234E+01 0.49436097110E+01
 0.67400854239E+01 0.99024659785E+01 0.14813327384E+02 0.21039880178E+02 0.27572363613E+02
 0.33264038231E+02 0.37115425073E+02 0.38440679204E+02 0.37021048019E+02 0.33151701034E+02
 0.18885066383E+02 0.13814483461E+02 0.96061776018E+01 0.67405764700E+01 0.49978422205E+01
 0.40302605322E+01 0.36317266242E+01 0.36268972038E+01 0.40262610827E+01 0.50062233542E+01
 0.67463634645E+01 0.95814396439E+01 0.13762477234E+02 0.18851590338E+02 0.23912344202E+02
 0.27920335716E+02 0.30097401163E+02 0.30065240435E+02 0.27859622342E+02 0.23888235162E+02
 0.11928492445E+02 0.87262591214E+01 0.64393329841E+01 0.49396209293E+01 0.40302605322E+01
 0.35742512967E+01 0.34345639877E+01 0.35672049401E+01 0.40306284009E+01 0.49546175362E+01
 0.64551273218E+01 0.87214827644E+01 0.11898436981E+02 0.15586387761E+02 0.19015611470E+02
 0.21414123896E+02 0.22272948716E+02 0.21425968738E+02 0.19043533231E+02 0.15625052065E+02
 0.75433131377E+01 0.59378052250E+01 0.47920831256E+01 0.40548777616E+01 0.36317266242E+01
 0.34345639877E+01 0.34299545825E+01 0.36240560268E+01 0.40569726473E+01 0.48112828745E+01
 0.59674361186E+01 0.75651976431E+01 0.96467393421E+01 0.11921639509E+02 0.13865343735E+02
 0.14986104188E+02 0.15001427553E+02 0.13899578825E+02 0.11949409332E+02 0.96493001572E+01
 0.53830010634E+01 0.46407100815E+01 0.41325764040E+01 0.38091675436E+01 0.36268972038E+01
 0.35672049401E+01 0.36240560268E+01 0.37999332280E+01 0.41205838299E+01 0.46398505636E+01
 0.54034792621E+01 0.63861851756E+01 0.75224717552E+01 0.86658600396E+01 0.95339244319E+01
 0.98626218512E+01 0.95392887502E+01 0.86607875801E+01 0.74974271092E+01 0.63527849892E+01
 0.45264606484E+01 0.42925160039E+01 0.41394839521E+01 0.40553879234E+01 0.40262610827E+01
 0.40306284009E+01 0.40569726473E+01 0.41205838299E+01 0.42570423634E+01 0.45008456258E+01
 0.48670169367E+01 0.53377162195E+01 0.58511022316E+01 0.63070836786E+01 0.65862851452E+01
 0.65836911733E+01 0.62940499792E+01 0.58236634311E+01 0.53096631669E+01 0.48622218671E+01
 0.45248961564E+01 0.46469821371E+01 0.48025417255E+01 0.49436097110E+01 0.50062233542E+01
 0.49546175362E+01 0.48112828745E+01 0.46398505636E+01 0.45008456258E+01 0.44261503016E+01
 0.44258954702E+01 0.44985795947E+01 0.46209745513E+01 0.47375079456E+01 0.47828303196E+01
 0.47297427104E+01 0.46132233457E+01 0.45014398701E+01 0.44446756104E+01 0.44549086635E+01
 0.53782610042E+01 0.59367681095E+01 0.64350166264E+01 0.67400854239E+01 0.67463634645E+01
 0.64551273218E+01 0.59674361186E+01 0.54034792621E+01 0.48670169367E+01 0.44258954702E+01
 0.41079572556E+01 0.39108019474E+01 0.38085603708E+01 0.37651971035E+01 0.37601058244E+01
 0.38040351607E+01 0.39243594754E+01 0.41387093955E+01 0.44514005045E+01 0.48663783864E+01
 0.75368805119E+01 0.87121213187E+01 0.95839623325E+01 0.99024659785E+01 0.95814396439E+01
 0.87214827644E+01 0.75651976431E+01 0.63861851756E+01 0.53377162195E+01 0.44985795947E+01
 0.39108019474E+01 0.35407529360E+01 0.33368068583E+01 0.32694910160E+01 0.33353528326E+01
 0.35451774562E+01 0.39212635489E+01 0.45014398701E+01 0.53196876430E+01 0.63525780992E+01
 0.11925244729E+02 0.13802284018E+02 0.14832248009E+02 0.14813327384E+02 0.13762477234E+02
 0.11898436981E+02 0.96467393421E+01 0.75224717552E+01 0.58511022316E+01 0.46209745513E+01
 0.38085603708E+01 0.33368068583E+01 0.31211485756E+01 0.31229368176E+01 0.33403864440E+01
 0.38078430649E+01 0.46076151490E+01 0.58236634311E+01 0.74949140087E+01 0.96416912316E+01
 0.18890607549E+02 0.21065636246E+02 0.21808080765E+02 0.21039880178E+02 0.18851590338E+02
 0.15586387761E+02 0.11921639509E+02 0.86658600396E+01 0.63070836786E+01 0.47375079456E+01
 0.37651971035E+01 0.32694910160E+01 0.31229368176E+01 0.32738305189E+01 0.37659526263E+01
 0.47286565006E+01 0.62933387474E+01 0.86607875801E+01 0.11936528484E+02 0.15620258374E+02
 0.27532840771E+02 0.29441499017E+02 0.29462940914E+02 0.27572363613E+02 0.23912344202E+02
 0.19015611470E+02 0.13865343735E+02 0.95339244319E+01 0.65862851452E+01 0.47828303196E+01
 0.37601058244E+01 0.33353528326E+01 0.33403864440E+01 0.37659526263E+01 0.47777071467E+01
 0.65791755837E+01 0.95467456971E+01 0.13899578825E+02 0.19040621390E+02 0.23899032550E+02
 0.36577335521E+02 0.37768804725E+02 0.36651852410E+02 0.33264038231E+02 0.27920335716E+02
 0.21414123896E+02 0.14986104188E+02 0.98626218512E+01 0.65836911733E+01 0.47297427104E+01
 0.38040351607E+01 0.35451774562E+01 0.38078430649E+01 0.47286565006E+01 0.65791755837E+01
 0.98703847416E+01 0.15010349872E+02 0.21425968738E+02 0.27881219363E+02 0.33177422017E+02
 0.45054662057E+02 0.45078431101E+02 0.42321792055E+02 0.37115425073E+02 0.30097401163E+02
 0.22272948716E+02 0.15001427553E+02 0.95392887502E+01 0.62940499792E+01 0.46132233457E+01
 0.39243594754E+01 0.39212635489E+01 0.46076151490E+01 0.62933387474E+01 0.95467456971E+01
 0.15010349872E+02 0.22268046668E+02 0.30065240435E+02 0.37058895584E+02 0.42265485791E+02
 0.52004068877E+02 0.50280103344E+02 0.45481611284E+02 0.38440679204E+02 0.30065240435E+02
 0.21425968738E+02 0.13899578825E+02 0.86607875801E+01 0.58236634311E+01 0.45014398701E+01
 0.41387093955E+01 0.45014398701E+01 0.58236634311E+01 0.86607875801E+01 0.13899578825E+02
 0.21425968738E+02 0.30065240435E+02 0.38440679204E+02 0.45481611284E+02 0.50280103344E+02
 0.56068510582E+02 0.52193791246E+02 0.45448289120E+02 0.37021048019E+02 0.27859622342E+02
 0.19043533231E+02 0.11949409332E+02 0.74974271092E+01 0.53096631669E+01 0.44446756104E+01
 0.44514005045E+01 0.53196876430E+01 0.74949140087E+01 0.11936528484E+02 0.19040621390E+02
 0.27881219363E+02 0.37058895584E+02 0.45481611284E+02 0.52211072221E+02 0.56072876261E+02
 0.56069207411E+02 0.50265597734E+02 0.42239223339E+02 0.33151701034E+02 0.23888235162E+02
 0.15625052065E+02 0.96493001572E+01 0.63527849892E+01 0.48622218671E+01 0.44549086635E+01
 0.48663783864E+01 0.63525780992E+01 0.96416912316E+01 0.15620258374E+02 0.23899032550E+02
 0.33177422017E+02 0.42265485791E+02 0.50280103344E+02 0.56072876261E+02 0.58232753871E+02
 0.40642516983E+02 0.34198343560E+02 0.26581131816E+02 0.18885066383E+02 0.12373191244E+02
 0.79584750943E+01 0.55513985128E+01 0.43981524637E+01 0.40827799686E+01 0.43999647400E+01
 0.55509283360E+01 0.79497980205E+01 0.12354905314E+02 0.18866909942E+02 0.26581229899E+02
 0.34227956657E+02 0.40690894786E+02 0.45054662057E+02 0.46593745609E+02 0.45017380592E+02
 0.34198343560E+02 0.27498583497E+02 0.20310155338E+02 0.13814483461E+02 0.90116386985E+01
 0.61501424540E+01 0.46330804138E+01 0.40222881444E+01 0.40279471947E+01 0.46421649398E+01