   1   1   1   0
  0.1600000E+02  0.2828427E-09  0.2828427E-09  0.2828427E-09  0.5000000E-15
  1.000000000000000E-004
  CAR 
 fcc Au                                  
     38.86217425     -6.16081976  301      6.43120864      1.00000000
     -6.161  0.0000E+00  0.0000E+00
     -6.011  0.0000E+00  0.0000E+00
     -5.861 -0.5073E-34 -0.7613E-35
     -5.711 -0.1297E-28 -0.1946E-29
     -5.561 -0.1065E-23 -0.1599E-24
     -5.410 -0.2807E-19 -0.4213E-20
     -5.260 -0.2293E-15 -0.3441E-16
     -5.110 -0.6106E-12 -0.9168E-13
     -4.960 -0.5116E-09 -0.7686E-10
     -4.810 -0.1329E-06 -0.2002E-07
     -4.660 -0.1034E-04 -0.1572E-05
     -4.510 -0.2203E-03 -0.3463E-04
     -4.360 -0.8294E-03 -0.1591E-03
     -4.210  0.3363E-02  0.3456E-03
     -4.060  0.1499E-01  0.2595E-02
     -3.910  0.3415E-01  0.7720E-02
     -3.760  0.5114E-01  0.1539E-01
     -3.610  0.5107E-01  0.2306E-01
     -3.459  0.5627E-01  0.3150E-01
     -3.309  0.7482E-01  0.4273E-01
     -3.159  0.1019E+00  0.5803E-01
     -3.009  0.9078E-01  0.7166E-01
     -2.859  0.6062E-01  0.8075E-01
     -2.709  0.1056E+00  0.9660E-01
     -2.559  0.1658E+00  0.1215E+00
     -2.409  0.1411E+00  0.1427E+00
     -2.259  0.9836E-01  0.1574E+00
     -2.109  0.1671E+00  0.1825E+00
     -1.959  0.1946E+00  0.2117E+00
     -1.809  0.1810E+00  0.2389E+00
     -1.659  0.2721E+00  0.2797E+00
     -1.508  0.4462E+00  0.3467E+00
     -1.358  0.5874E+00  0.4348E+00
     -1.208  0.6418E+00  0.5311E+00
     -1.058  0.9630E+00  0.6757E+00
     -0.908  0.1206E+01  0.8566E+00
     -0.758  0.1504E+01  0.1082E+01
     -0.608  0.1682E+01  0.1335E+01
     -0.458  0.1681E+01  0.1587E+01
     -0.308  0.1656E+01  0.1836E+01
     -0.158  0.1395E+01  0.2045E+01
     -0.008  0.1471E+01  0.2266E+01
      0.142  0.1253E+01  0.2454E+01
      0.292  0.9998E+00  0.2604E+01
      0.443  0.1419E+01  0.2817E+01
      0.593  0.1642E+01  0.3063E+01
      0.743  0.1727E+01  0.3322E+01
      0.893  0.1630E+01  0.3567E+01
      1.043  0.1711E+01  0.3824E+01
      1.193  0.2028E+01  0.4128E+01
      1.343  0.1963E+01  0.4423E+01
      1.493  0.2076E+01  0.4734E+01
      1.643  0.2661E+01  0.5134E+01
      1.793  0.2969E+01  0.5579E+01
      1.943  0.2133E+01  0.5899E+01
      2.093  0.1524E+01  0.6128E+01
      2.243  0.1302E+01  0.6323E+01
      2.394  0.1470E+01  0.6544E+01
      2.544  0.1460E+01  0.6763E+01
      2.694  0.1728E+01  0.7023E+01
      2.844  0.2000E+01  0.7323E+01
      2.994  0.1774E+01  0.7589E+01
      3.144  0.1492E+01  0.7813E+01
      3.294  0.1846E+01  0.8090E+01
      3.444  0.1591E+01  0.8329E+01
      3.594  0.1082E+01  0.8491E+01
      3.744  0.1549E+01  0.8724E+01
      3.894  0.1542E+01  0.8955E+01
      4.044  0.1447E+01  0.9172E+01
      4.194  0.2091E+01  0.9486E+01
      4.345  0.2359E+01  0.9840E+01
      4.495  0.2151E+01  0.1016E+02
      4.645  0.1543E+01  0.1039E+02
      4.795  0.1080E+01  0.1056E+02
      4.945  0.4891E+00  0.1063E+02
      5.095  0.3768E-01  0.1064E+02
      5.245  0.4375E-01  0.1064E+02
      5.395  0.2866E+00  0.1069E+02
      5.545  0.4840E+00  0.1076E+02
      5.695  0.3792E+00  0.1081E+02
      5.845  0.1780E+00  0.1084E+02
      5.995  0.1555E+00  0.1086E+02
      6.145  0.3311E+00  0.1091E+02
      6.296  0.3573E+00  0.1097E+02
      6.446  0.2332E+00  0.1100E+02
      6.596  0.2354E+00  0.1104E+02
      6.746  0.2014E+00  0.1107E+02
      6.896  0.1788E+00  0.1110E+02
      7.046  0.3916E+00  0.1115E+02
      7.196  0.3895E+00  0.1121E+02
      7.346  0.3234E+00  0.1126E+02
      7.496  0.2423E+00  0.1130E+02
      7.646  0.1784E+00  0.1132E+02
      7.796  0.1446E+00  0.1135E+02
      7.946  0.2128E+00  0.1138E+02
      8.096  0.3253E+00  0.1143E+02
      8.247  0.3856E+00  0.1148E+02
      8.397  0.2743E+00  0.1153E+02
      8.547  0.2013E+00  0.1156E+02
      8.697  0.1597E+00  0.1158E+02
      8.847  0.1683E+00  0.1161E+02
      8.997  0.3385E+00  0.1166E+02
      9.147  0.2481E+00  0.1169E+02
      9.297  0.2152E+00  0.1173E+02
      9.447  0.2450E+00  0.1176E+02
      9.597  0.9197E-01  0.1178E+02
      9.747  0.2220E+00  0.1181E+02
      9.897  0.5703E+00  0.1190E+02
     10.047  0.5750E+00  0.1198E+02
     10.198  0.2148E+00  0.1201E+02
     10.348  0.1836E+00  0.1204E+02
     10.498  0.2778E+00  0.1208E+02
     10.648  0.3761E+00  0.1214E+02
     10.798  0.3846E+00  0.1220E+02
     10.948  0.3118E+00  0.1224E+02
     11.098  0.2571E+00  0.1228E+02
     11.248  0.1603E+00  0.1231E+02
     11.398  0.1477E+00  0.1233E+02
     11.548  0.3775E+00  0.1239E+02
     11.698  0.4300E+00  0.1245E+02
     11.848  0.3281E+00  0.1250E+02
     11.998  0.2616E+00  0.1254E+02
     12.149  0.2416E+00  0.1257E+02
     12.299  0.3775E+00  0.1263E+02
     12.449  0.4687E+00  0.1270E+02
     12.599  0.3264E+00  0.1275E+02
     12.749  0.3045E+00  0.1280E+02
     12.899  0.3506E+00  0.1285E+02
     13.049  0.2486E+00  0.1289E+02
     13.199  0.1719E+00  0.1291E+02
     13.349  0.3614E+00  0.1297E+02
     13.499  0.5053E+00  0.1304E+02
     13.649  0.2036E+00  0.1307E+02
     13.799  0.4878E-01  0.1308E+02
     13.949  0.1478E+00  0.1310E+02
     14.100  0.3621E+00  0.1316E+02
     14.250  0.3380E+00  0.1321E+02
     14.400  0.2556E+00  0.1325E+02
     14.550  0.4789E+00  0.1332E+02
     14.700  0.5406E+00  0.1340E+02
     14.850  0.5306E+00  0.1348E+02
     15.000  0.4771E+00  0.1355E+02
     15.150  0.1329E+00  0.1357E+02
     15.300 -0.6247E-02  0.1357E+02
     15.450  0.2340E+00  0.1360E+02
     15.600  0.4842E+00  0.1368E+02
     15.750  0.3523E+00  0.1373E+02
     15.900  0.2593E+00  0.1377E+02
     16.051  0.3679E+00  0.1382E+02
     16.201  0.5079E+00  0.1390E+02
     16.351  0.4283E+00  0.1396E+02
     16.501  0.3452E+00  0.1402E+02
     16.651  0.4919E+00  0.1409E+02
     16.801  0.4591E+00  0.1416E+02
     16.951  0.4186E+00  0.1422E+02
     17.101  0.5251E+00  0.1430E+02
     17.251  0.3719E+00  0.1436E+02
     17.401  0.3788E+00  0.1441E+02
     17.551  0.6781E+00  0.1451E+02
     17.701  0.6478E+00  0.1461E+02
     17.851  0.2427E+00  0.1465E+02
     18.002  0.2234E+00  0.1468E+02
     18.152  0.3434E+00  0.1473E+02
     18.302  0.5877E+00  0.1482E+02
     18.452  0.6962E+00  0.1493E+02
     18.602  0.6683E+00  0.1503E+02
     18.752  0.6899E+00  0.1513E+02
     18.902  0.4699E+00  0.1520E+02
     19.052  0.1796E+00  0.1523E+02
     19.202  0.2208E+00  0.1526E+02
     19.352  0.4632E+00  0.1533E+02
     19.502  0.6281E+00  0.1542E+02
     19.652  0.4519E+00  0.1549E+02
     19.802  0.3928E+00  0.1555E+02
     19.953  0.4902E+00  0.1562E+02
     20.103  0.4769E+00  0.1570E+02
     20.253  0.4802E+00  0.1577E+02
     20.403  0.6344E+00  0.1586E+02
     20.553  0.4647E+00  0.1593E+02
     20.703  0.4106E+00  0.1599E+02
     20.853  0.5631E+00  0.1608E+02
     21.003  0.6091E+00  0.1617E+02
     21.153  0.5699E+00  0.1626E+02
     21.303  0.7450E+00  0.1637E+02
     21.453  0.7055E+00  0.1647E+02
     21.603  0.3386E+00  0.1652E+02
     21.753  0.2375E+00  0.1656E+02
     21.904  0.5049E+00  0.1664E+02
     22.054  0.7360E+00  0.1675E+02
     22.204  0.5331E+00  0.1683E+02
     22.354  0.5707E+00  0.1691E+02
     22.504  0.7727E+00  0.1703E+02
     22.654  0.7274E+00  0.1714E+02
     22.804  0.6744E+00  0.1724E+02
     22.954  0.4442E+00  0.1731E+02
     23.104  0.3094E+00  0.1735E+02
     23.254  0.4624E+00  0.1742E+02
     23.404  0.4180E+00  0.1748E+02
     23.554  0.2653E+00  0.1752E+02
     23.704  0.3278E+00  0.1757E+02
     23.855  0.3720E+00  0.1763E+02
     24.005  0.5539E+00  0.1771E+02
     24.155  0.9572E+00  0.1786E+02
     24.305  0.8808E+00  0.1799E+02
     24.455  0.6248E+00  0.1808E+02
     24.605  0.5966E+00  0.1817E+02
     24.755  0.6152E+00  0.1826E+02
     24.905  0.7578E+00  0.1838E+02
     25.055  0.8508E+00  0.1850E+02
     25.205  0.8276E+00  0.1863E+02
     25.355  0.8970E+00  0.1876E+02
     25.505  0.8770E+00  0.1890E+02
     25.655  0.5601E+00  0.1898E+02
     25.806  0.3370E+00  0.1903E+02
     25.956  0.3987E+00  0.1909E+02
     26.106  0.8049E+00  0.1921E+02
     26.256  0.1010E+01  0.1936E+02
     26.406  0.7160E+00  0.1947E+02
     26.556  0.4283E+00  0.1953E+02
     26.706  0.3919E+00  0.1959E+02
     26.856  0.3768E+00  0.1965E+02
     27.006  0.5474E+00  0.1973E+02
     27.156  0.6501E+00  0.1983E+02
     27.306  0.5259E+00  0.1991E+02
     27.456  0.4677E+00  0.1998E+02
     27.606  0.4569E+00  0.2005E+02
     27.757  0.3435E+00  0.2010E+02
     27.907  0.1812E+00  0.2013E+02
     28.057  0.2596E+00  0.2016E+02
     28.207  0.4351E+00  0.2023E+02
     28.357  0.5590E+00  0.2031E+02
     28.507  0.5516E+00  0.2040E+02
     28.657  0.3293E+00  0.2045E+02
     28.807  0.1601E+00  0.2047E+02
     28.957  0.1954E+00  0.2050E+02
     29.107  0.2778E+00  0.2054E+02
     29.257  0.5741E+00  0.2063E+02
     29.407  0.5317E+00  0.2071E+02
     29.557  0.2989E+00  0.2075E+02
     29.707  0.3188E+00  0.2080E+02
     29.858  0.6664E+00  0.2090E+02
     30.008  0.8040E+00  0.2102E+02
     30.158  0.5139E+00  0.2110E+02
     30.308  0.1964E+00  0.2113E+02
     30.458  0.5404E-01  0.2113E+02
     30.608  0.2870E+00  0.2118E+02
     30.758  0.5366E+00  0.2126E+02
     30.908  0.5476E+00  0.2134E+02
     31.058  0.5511E+00  0.2142E+02
     31.208  0.5913E+00  0.2151E+02
     31.358  0.5411E+00  0.2159E+02
     31.508  0.4737E+00  0.2166E+02
     31.658  0.8628E+00  0.2179E+02
     31.809  0.8127E+00  0.2192E+02
     31.959  0.5699E+00  0.2200E+02
     32.109  0.5412E+00  0.2208E+02
     32.259  0.5669E+00  0.2217E+02
     32.409  0.6314E+00  0.2226E+02
     32.559  0.6559E+00  0.2236E+02
     32.709  0.7220E+00  0.2247E+02
     32.859  0.7642E+00  0.2258E+02
     33.009  0.6863E+00  0.2269E+02
     33.159  0.4908E+00  0.2276E+02
     33.309  0.7377E+00  0.2287E+02
     33.459  0.9412E+00  0.2301E+02
     33.609  0.7115E+00  0.2312E+02
     33.760  0.5890E+00  0.2321E+02
     33.910  0.6766E+00  0.2331E+02
     34.060  0.6381E+00  0.2340E+02
     34.210  0.3469E+00  0.2346E+02
     34.360  0.4925E+00  0.2353E+02
     34.510  0.6947E+00  0.2363E+02
     34.660  0.4224E+00  0.2370E+02
     34.810  0.2428E+00  0.2373E+02
     34.960  0.2144E+00  0.2377E+02
     35.110  0.5460E-01  0.2378E+02
     35.260  0.1093E+00  0.2379E+02
     35.410  0.2736E+00  0.2383E+02
     35.560  0.3333E+00  0.2388E+02
     35.711  0.2338E+00  0.2392E+02
     35.861  0.2295E+00  0.2395E+02
     36.011  0.9183E-01  0.2397E+02
     36.161 -0.1016E-01  0.2396E+02
     36.311 -0.3680E-02  0.2396E+02
     36.461  0.2993E-01  0.2397E+02
     36.611  0.5592E-01  0.2398E+02
     36.761  0.7812E-01  0.2399E+02
     36.911  0.6781E-01  0.2400E+02
     37.061  0.1276E-01  0.2400E+02
     37.211 -0.3274E-02  0.2400E+02
     37.361 -0.7303E-03  0.2400E+02
     37.511 -0.3234E-04  0.2400E+02
     37.662 -0.4055E-06  0.2400E+02
     37.812 -0.1546E-08  0.2400E+02
     37.962 -0.1838E-11  0.2400E+02
     38.112 -0.6924E-15  0.2400E+02
     38.262  0.0000E+00  0.2400E+02
     38.412  0.0000E+00  0.2400E+02
     38.562  0.0000E+00  0.2400E+02
     38.712  0.0000E+00  0.2400E+02
     38.862  0.0000E+00  0.2400E+02
     38.86217425     -6.16081976  301      6.43120864      1.00000000
     -6.161  0.0000E+00  0.0000E+00  0.0000E+00
     -6.011  0.0000E+00  0.0000E+00  0.0000E+00
     -5.861 -0.3643E-34 -0.2712E-36 -0.5662E-38
     -5.711 -0.9310E-29 -0.6931E-31 -0.1447E-32
     -5.561 -0.7649E-24 -0.5694E-26 -0.1189E-27
     -5.410 -0.2016E-19 -0.1501E-21 -0.3133E-23
     -5.260 -0.1646E-15 -0.1226E-17 -0.2559E-19
     -5.110 -0.4385E-12 -0.3264E-14 -0.6816E-16
     -4.960 -0.3673E-09 -0.2735E-11 -0.5711E-13
     -4.810 -0.9540E-07 -0.7106E-09 -0.1486E-10
     -4.660 -0.7427E-05 -0.5548E-07 -0.1168E-08
     -4.510 -0.1581E-03 -0.1209E-05 -0.2691E-07
     -4.360 -0.5939E-03 -0.5999E-05 -0.2068E-06
     -4.210  0.2434E-02 -0.1342E-05 -0.1062E-05
     -4.060  0.1077E-01  0.6885E-04 -0.3296E-07
     -3.910  0.2419E-01  0.5130E-03  0.2254E-04
     -3.760  0.3592E-01  0.1050E-02  0.7298E-04
     -3.610  0.3540E-01  0.1459E-02  0.1736E-03
     -3.459  0.3842E-01  0.2107E-02  0.3067E-03
     -3.309  0.5028E-01  0.3467E-02  0.6029E-03
     -3.159  0.6744E-01  0.5479E-02  0.1251E-02
     -3.009  0.5938E-01  0.5187E-02  0.1617E-02
     -2.859  0.3876E-01  0.3949E-02  0.1601E-02
     -2.709  0.6579E-01  0.8082E-02  0.3386E-02
     -2.559  0.1016E+00  0.1337E-01  0.6749E-02
     -2.409  0.8508E-01  0.1184E-01  0.6892E-02
     -2.259  0.5715E-01  0.8727E-02  0.7024E-02
     -2.109  0.9356E-01  0.1567E-01  0.1540E-01
     -1.959  0.1056E+00  0.1831E-01  0.2200E-01
     -1.809  0.9402E-01  0.1824E-01  0.2386E-01
     -1.659  0.1303E+00  0.2554E-01  0.5298E-01
     -1.508  0.1777E+00  0.3140E-01  0.1473E+00
     -1.358  0.1970E+00  0.3197E-01  0.2527E+00
     -1.208  0.1745E+00  0.3073E-01  0.3279E+00
     -1.058  0.2282E+00  0.4972E-01  0.5223E+00
     -0.908  0.2414E+00  0.5918E-01  0.7106E+00
     -0.758  0.2200E+00  0.6163E-01  0.1006E+01
     -0.608  0.1952E+00  0.6113E-01  0.1204E+01
     -0.458  0.1654E+00  0.6524E-01  0.1239E+01
     -0.308  0.1235E+00  0.6107E-01  0.1275E+01
     -0.158  0.8831E-01  0.6075E-01  0.1082E+01
     -0.008  0.6744E-01  0.6873E-01  0.1165E+01
      0.142  0.3491E-01  0.6277E-01  0.1014E+01
      0.292  0.1608E-01  0.5963E-01  0.8118E+00
      0.443  0.1786E-01  0.9105E-01  0.1151E+01
      0.593  0.1858E-01  0.1019E+00  0.1341E+01
      0.743  0.1824E-01  0.9229E-01  0.1435E+01
      0.893  0.2201E-01  0.7578E-01  0.1373E+01
      1.043  0.2915E-01  0.7785E-01  0.1445E+01
      1.193  0.3908E-01  0.1140E+00  0.1686E+01
      1.343  0.4466E-01  0.1071E+00  0.1635E+01
      1.493  0.4533E-01  0.9805E-01  0.1757E+01
      1.643  0.4337E-01  0.1329E+00  0.2270E+01
      1.793  0.4915E-01  0.1585E+00  0.2524E+01
      1.943  0.4563E-01  0.1191E+00  0.1796E+01
      2.093  0.3062E-01  0.7491E-01  0.1301E+01
      2.243  0.1831E-01  0.7648E-01  0.1103E+01
      2.394  0.2234E-01  0.9444E-01  0.1232E+01
      2.544  0.2207E-01  0.7621E-01  0.1252E+01
      2.694  0.2704E-01  0.8584E-01  0.1490E+01
      2.844  0.2653E-01  0.7894E-01  0.1762E+01
      2.994  0.1765E-01  0.4340E-01  0.1608E+01
      3.144  0.1270E-01  0.4910E-01  0.1340E+01
      3.294  0.2046E-01  0.7174E-01  0.1643E+01
      3.444  0.2183E-01  0.5789E-01  0.1420E+01
      3.594  0.9602E-02  0.2596E-01  0.9947E+00
      3.744  0.9124E-02  0.3486E-01  0.1436E+01
      3.894  0.1639E-01  0.4333E-01  0.1410E+01
      4.044  0.1507E-01  0.2907E-01  0.1343E+01
      4.194  0.1539E-01  0.2605E-01  0.1977E+01
      4.345  0.1289E-01  0.2103E-01  0.2252E+01
      4.495  0.6256E-02  0.1732E-01  0.2066E+01
      4.645  0.1807E-01  0.2883E-01  0.1445E+01
      4.795  0.4395E-01  0.4658E-01  0.9384E+00
      4.945  0.3266E-01  0.3651E-01  0.3878E+00
      5.095  0.6345E-02  0.8915E-02  0.1637E-01
      5.245  0.4701E-02  0.6282E-02  0.2813E-01
      5.395  0.3045E-01  0.3120E-01  0.2002E+00
      5.545  0.5509E-01  0.5617E-01  0.3294E+00
      5.695  0.4503E-01  0.6414E-01  0.2267E+00
      5.845  0.1839E-01  0.4562E-01  0.8637E-01
      5.995  0.1406E-01  0.4435E-01  0.7082E-01
      6.145  0.4563E-01  0.6845E-01  0.1728E+00
      6.296  0.5771E-01  0.5457E-01  0.2053E+00
      6.446  0.4048E-01  0.3078E-01  0.1379E+00
      6.596  0.3435E-01  0.4976E-01  0.1194E+00
      6.746  0.2646E-01  0.4977E-01  0.9504E-01
      6.896  0.2778E-01  0.4432E-01  0.7983E-01
      7.046  0.6821E-01  0.9076E-01  0.1746E+00
      7.196  0.6491E-01  0.9330E-01  0.1709E+00
      7.346  0.4001E-01  0.1007E+00  0.1244E+00
      7.496  0.3598E-01  0.7158E-01  0.9359E-01
      7.646  0.3509E-01  0.4182E-01  0.7586E-01
      7.796  0.3414E-01  0.2883E-01  0.6114E-01
      7.946  0.5596E-01  0.4060E-01  0.8356E-01
      8.096  0.6355E-01  0.8900E-01  0.1155E+00
      8.247  0.5821E-01  0.1272E+00  0.1280E+00
      8.397  0.5053E-01  0.8260E-01  0.9305E-01
      8.547  0.4288E-01  0.5262E-01  0.7273E-01
      8.697  0.3488E-01  0.4148E-01  0.5482E-01
      8.847  0.3656E-01  0.4876E-01  0.5066E-01
      8.997  0.7673E-01  0.9670E-01  0.1010E+00
      9.147  0.6807E-01  0.6027E-01  0.7434E-01
      9.297  0.5622E-01  0.5600E-01  0.6500E-01
      9.447  0.5263E-01  0.7672E-01  0.6998E-01
      9.597  0.2263E-01  0.2892E-01  0.2146E-01
      9.747  0.9927E-01  0.2950E-01  0.5284E-01
      9.897  0.2417E+00  0.7223E-01  0.1671E+00
     10.047  0.2383E+00  0.7453E-01  0.1747E+00
     10.198  0.8768E-01  0.3357E-01  0.5553E-01
     10.348  0.5405E-01  0.5379E-01  0.3299E-01
     10.498  0.9011E-01  0.6978E-01  0.6241E-01
     10.648  0.1408E+00  0.7072E-01  0.9847E-01
     10.798  0.1278E+00  0.8108E-01  0.1057E+00
     10.948  0.1023E+00  0.7161E-01  0.7608E-01
     11.098  0.7621E-01  0.7341E-01  0.5152E-01
     11.248  0.3218E-01  0.5942E-01  0.3052E-01
     11.398  0.2568E-01  0.5696E-01  0.3013E-01
     11.548  0.9846E-01  0.1157E+00  0.8069E-01
     11.698  0.1396E+00  0.1117E+00  0.8387E-01
     11.848  0.9340E-01  0.9139E-01  0.7211E-01
     11.998  0.6529E-01  0.8204E-01  0.5835E-01
     12.149  0.9128E-01  0.6073E-01  0.3708E-01
     12.299  0.1255E+00  0.1035E+00  0.6594E-01
     12.449  0.1238E+00  0.1523E+00  0.8236E-01
     12.599  0.1023E+00  0.9657E-01  0.5254E-01
     12.749  0.8935E-01  0.8586E-01  0.6659E-01
     12.899  0.9370E-01  0.1012E+00  0.8172E-01
     13.049  0.8060E-01  0.6366E-01  0.4932E-01
     13.199  0.5423E-01  0.5018E-01  0.2465E-01
     13.349  0.9517E-01  0.1140E+00  0.6193E-01
     13.499  0.1408E+00  0.1589E+00  0.7790E-01
     13.649  0.6725E-01  0.6231E-01  0.2165E-01
     13.799  0.3794E-02  0.2554E-01  0.7574E-02
     13.949  0.2416E-01  0.6140E-01  0.2466E-01
     14.100  0.1055E+00  0.1096E+00  0.5468E-01
     14.250  0.9904E-01  0.9769E-01  0.5660E-01
     14.400  0.5468E-01  0.8380E-01  0.5456E-01
     14.550  0.9594E-01  0.1592E+00  0.1071E+00
     14.700  0.9375E-01  0.2002E+00  0.1103E+00
     14.850  0.8122E-01  0.2122E+00  0.9700E-01
     15.000  0.8830E-01  0.1723E+00  0.8693E-01
     15.150  0.3145E-01  0.4214E-01  0.2172E-01
     15.300 -0.2063E-02 -0.2705E-02 -0.7969E-03
     15.450  0.1607E-01  0.1014E+00  0.4935E-01
     15.600  0.4160E-01  0.2081E+00  0.1012E+00
     15.750  0.5041E-01  0.1377E+00  0.6814E-01
     15.900  0.6456E-01  0.8760E-01  0.3149E-01
     16.051  0.7391E-01  0.1363E+00  0.4245E-01
     16.201  0.6338E-01  0.2102E+00  0.8332E-01
     16.351  0.3804E-01  0.1793E+00  0.9573E-01
     16.501  0.2027E-01  0.1479E+00  0.8538E-01
     16.651  0.2494E-01  0.2090E+00  0.1156E+00
     16.801  0.2909E-01  0.1812E+00  0.1046E+00
     16.951  0.3013E-01  0.1705E+00  0.7623E-01
     17.101  0.4371E-01  0.2206E+00  0.8065E-01
     17.251  0.4451E-01  0.1497E+00  0.4979E-01
     17.401  0.4430E-01  0.1570E+00  0.5194E-01
     17.551  0.3446E-01  0.2948E+00  0.1293E+00
     17.701  0.2156E-01  0.2782E+00  0.1471E+00
     17.851  0.6796E-02  0.1028E+00  0.5692E-01
     18.002  0.6508E-02  0.1007E+00  0.4127E-01
     18.152  0.2174E-01  0.1435E+00  0.6766E-01
     18.302  0.3537E-01  0.2343E+00  0.1136E+00
     18.452  0.3787E-01  0.2827E+00  0.1251E+00
     18.602  0.3523E-01  0.2748E+00  0.1245E+00
     18.752  0.3124E-01  0.2897E+00  0.1376E+00
     18.902  0.2693E-01  0.1870E+00  0.1010E+00
     19.052  0.1030E-01  0.6311E-01  0.4468E-01
     19.202  0.1018E-01  0.9027E-01  0.4444E-01
     19.352  0.1356E-01  0.1923E+00  0.9284E-01
     19.502  0.1769E-01  0.2481E+00  0.1278E+00
     19.652  0.2164E-01  0.1642E+00  0.8134E-01
     19.802  0.1747E-01  0.1499E+00  0.7174E-01
     19.953  0.1390E-01  0.1974E+00  0.1049E+00
     20.103  0.1940E-01  0.1934E+00  0.9250E-01
     20.253  0.1628E-01  0.1927E+00  0.8739E-01
     20.403  0.1883E-01  0.2422E+00  0.1245E+00
     20.553  0.1480E-01  0.1702E+00  0.9537E-01
     20.703  0.1295E-01  0.1354E+00  0.8509E-01
     20.853  0.1907E-01  0.1779E+00  0.1114E+00
     21.003  0.1906E-01  0.1705E+00  0.1241E+00
     21.153  0.1207E-01  0.1363E+00  0.9314E-01
     21.303  0.9158E-02  0.1773E+00  0.1077E+00
     21.453  0.8795E-02  0.1811E+00  0.1091E+00
     21.603  0.4033E-02  0.7403E-01  0.4345E-01
     21.753  0.1217E-02  0.5236E-01  0.2512E-01
     21.904  0.5635E-02  0.1397E+00  0.7465E-01
     22.054  0.1057E-01  0.1930E+00  0.1227E+00
     22.204  0.6840E-02  0.1343E+00  0.8177E-01
     22.354  0.1149E-01  0.1260E+00  0.8898E-01
     22.504  0.2139E-01  0.1585E+00  0.1255E+00
     22.654  0.1521E-01  0.1589E+00  0.1001E+00
     22.804  0.7120E-02  0.1301E+00  0.8668E-01
     22.954  0.4015E-02  0.6753E-01  0.5548E-01
     23.104  0.5476E-02  0.5302E-01  0.3383E-01
     23.254  0.8704E-02  0.1006E+00  0.4923E-01
     23.404  0.7626E-02  0.1016E+00  0.3877E-01
     23.554  0.5126E-02  0.5893E-01  0.2209E-01
     23.704  0.5628E-02  0.6598E-01  0.3825E-01
     23.855  0.6251E-02  0.9910E-01  0.4070E-01
     24.005  0.1158E-01  0.1674E+00  0.5388E-01
     24.155  0.2631E-01  0.2769E+00  0.1156E+00
     24.305  0.3169E-01  0.2705E+00  0.1111E+00
     24.455  0.2759E-01  0.1764E+00  0.8230E-01
     24.605  0.2342E-01  0.1475E+00  0.8851E-01
     24.755  0.1837E-01  0.1502E+00  0.1030E+00
     24.905  0.1633E-01  0.1967E+00  0.1176E+00
     25.055  0.3226E-01  0.2031E+00  0.1401E+00
     25.205  0.4594E-01  0.1737E+00  0.1525E+00
     25.355  0.4223E-01  0.1769E+00  0.1571E+00
     25.505  0.3077E-01  0.1989E+00  0.1353E+00
     25.655  0.1262E-01  0.1500E+00  0.8169E-01
     25.806  0.3397E-02  0.1029E+00  0.3956E-01
     25.956  0.3273E-02  0.1222E+00  0.5149E-01
     26.106  0.7817E-02  0.2110E+00  0.1164E+00
     26.256  0.2139E-01  0.2501E+00  0.1358E+00
     26.406  0.2442E-01  0.1698E+00  0.1010E+00
     26.556  0.1704E-01  0.8082E-01  0.9239E-01
     26.706  0.2009E-01  0.6412E-01  0.9797E-01
     26.856  0.1351E-01  0.5951E-01  0.8309E-01
     27.006  0.5458E-02  0.1162E+00  0.1134E+00
     27.156  0.4219E-02  0.1318E+00  0.1319E+00
     27.306  0.3170E-02  0.8933E-01  0.1029E+00
     27.456  0.5482E-02  0.8225E-01  0.1139E+00
     27.606  0.1243E-01  0.1107E+00  0.9625E-01
     27.757  0.1504E-01  0.1008E+00  0.4794E-01
     27.907  0.6871E-02  0.3884E-01  0.2934E-01
     28.057  0.8216E-02  0.3444E-01  0.5912E-01
     28.207  0.1700E-01  0.6660E-01  0.9737E-01
     28.357  0.2146E-01  0.7939E-01  0.1315E+00
     28.507  0.1288E-01  0.9180E-01  0.1128E+00
     28.657  0.4658E-02  0.9029E-01  0.4555E-01
     28.807  0.2635E-02  0.4940E-01  0.1755E-01
     28.957  0.5334E-02  0.5901E-01  0.2507E-01
     29.107  0.1239E-01  0.9267E-01  0.2983E-01
     29.257  0.1705E-01  0.1524E+00  0.6116E-01
     29.407  0.1056E-01  0.1352E+00  0.5663E-01
     29.557  0.3874E-02  0.8111E-01  0.4278E-01
     29.707  0.5338E-02  0.6704E-01  0.5087E-01
     29.858  0.2424E-01  0.1232E+00  0.1115E+00
     30.008  0.3040E-01  0.1310E+00  0.1486E+00
     30.158  0.8159E-02  0.6416E-01  0.9054E-01
     30.308 -0.2640E-03  0.2040E-01  0.2912E-01
     30.458  0.3838E-04  0.2357E-02  0.2976E-02
     30.608  0.1822E-02  0.2855E-01  0.5111E-01
     30.758  0.1934E-02  0.6141E-01  0.1070E+00
     30.908  0.1773E-02  0.6938E-01  0.1258E+00
     31.058  0.3059E-02  0.7151E-01  0.1224E+00
     31.208  0.5204E-02  0.5679E-01  0.1139E+00
     31.358  0.6928E-02  0.4266E-01  0.1081E+00
     31.508  0.7394E-02  0.2813E-01  0.1114E+00
     31.658  0.1679E-01  0.5836E-01  0.2353E+00
     31.809  0.1463E-01  0.6612E-01  0.2211E+00
     31.959  0.6360E-02  0.5989E-01  0.1377E+00
     32.109  0.3791E-02  0.3286E-01  0.1852E+00
     32.259  0.3317E-02  0.2108E-01  0.2172E+00
     32.409  0.5971E-02  0.4912E-01  0.1941E+00
     32.559  0.6330E-02  0.5633E-01  0.1779E+00
     32.709  0.3925E-02  0.4434E-01  0.1950E+00
     32.859  0.2976E-02  0.4659E-01  0.1977E+00
     33.009  0.5470E-02  0.3869E-01  0.1842E+00
     33.159  0.1104E-01  0.1993E-01  0.1421E+00
     33.309  0.1889E-01  0.2142E-01  0.1983E+00
     33.459  0.2783E-01  0.2999E-01  0.2381E+00
     33.609  0.3002E-01  0.3645E-01  0.1842E+00
     33.760  0.2121E-01  0.4931E-01  0.1560E+00
     33.910  0.1676E-01  0.3990E-01  0.1690E+00
     34.060  0.1309E-01  0.1321E-01  0.1536E+00
     34.210  0.8082E-02  0.6461E-02  0.7190E-01
     34.360  0.9111E-02  0.1260E-01  0.7842E-01
     34.510  0.7859E-02  0.2168E-01  0.1006E+00
     34.660  0.7217E-02  0.2051E-01  0.6405E-01
     34.810  0.8591E-02  0.1360E-01  0.5665E-01
     34.960  0.6179E-02  0.8669E-02  0.5345E-01
     35.110  0.7917E-03  0.1194E-02  0.1125E-01
     35.260  0.6561E-02  0.8607E-02  0.1839E-01
     35.410  0.1279E-01  0.1853E-01  0.4017E-01
     35.560  0.8921E-02  0.1501E-01  0.3944E-01
     35.711  0.1585E-02  0.3792E-02  0.1891E-01
     35.861 -0.1970E-03  0.1307E-02  0.1096E-01
     36.011 -0.5008E-05  0.7158E-03  0.4037E-02
     36.161 -0.1457E-04 -0.7536E-04 -0.5073E-03
     36.311 -0.3951E-05 -0.4269E-04 -0.2286E-03
     36.461 -0.2022E-06 -0.1429E-04  0.2234E-03
     36.611 -0.2875E-08  0.9552E-05  0.8226E-03
     36.761  0.1150E-08  0.3016E-03  0.2592E-02
     36.911  0.2156E-08  0.4997E-03  0.2902E-02
     37.061  0.6567E-09  0.1444E-03  0.6556E-03
     37.211 -0.1001E-09 -0.2322E-04 -0.1363E-03
     37.361 -0.3026E-10 -0.6775E-05 -0.3394E-04
     37.511 -0.1433E-11 -0.3186E-06 -0.1543E-05
     37.662 -0.1842E-13 -0.4086E-08 -0.1955E-07
     37.812 -0.7091E-16 -0.1572E-10 -0.7484E-10
     37.962 -0.8465E-19 -0.1875E-13 -0.8912E-13
     38.112 -0.3199E-22 -0.7086E-17 -0.3362E-16
     38.262  0.0000E+00  0.0000E+00  0.0000E+00
     38.412  0.0000E+00  0.0000E+00  0.0000E+00
     38.562  0.0000E+00  0.0000E+00  0.0000E+00
     38.712  0.0000E+00  0.0000E+00  0.0000E+00
     38.862  0.0000E+00  0.0000E+00  0.0000E+00
