    1    1    1    1
  0.1600000E+02  0.2828427E-09  0.2828427E-09  0.2828427E-09  0.5000000E-15
  1.000000000000000E-004
  CAR 
 fcc Au                                  
     11    110     12
 
  0.5000000E-01  0.5000000E-01  0.5000000E-01  0.2000000E-02
    1       -4.114320   1.000000
    2        1.310980   1.000000
    3        1.376305   1.000000
    4        1.376305   1.000000
    5        3.047211   1.000000
    6        3.047211   1.000000
    7       21.847063   0.000000
    8       25.273726   0.000000
    9       26.064966   0.000000
   10       26.064966   0.000000
   11       31.031160   0.000000
   12       34.539265   0.000000
 
  0.1500000E+00  0.5000000E-01  0.5000000E-01  0.6000000E-02
    1       -3.633729   1.000000
    2        1.139158   1.000000
    3        1.529518   1.000000
    4        1.565618   1.000000
    5        2.882167   1.000000
    6        3.102475   1.000000
    7       22.292619   0.000000
    8       23.273540   0.000000
    9       25.775285   0.000000
   10       27.053520   0.000000
   11       30.701501   0.000000
   12       33.420485   0.000000
 
  0.2500000E+00  0.5000000E-01  0.5000000E-01  0.6000000E-02
    1       -2.600355   1.000000
    2        1.003369   1.000000
    3        1.697408   1.000000
    4        1.722439   1.000000
    5        2.889064   1.000000
    6        3.338818   1.000000
    7       19.491403   0.000000
    8       22.936055   0.000000
    9       26.101587   0.000000
   10       28.476309   0.000000
   11       28.534739   0.000000
   12       31.161060   0.000000
 
  0.3500000E+00  0.5000000E-01  0.5000000E-01  0.6000000E-02
    1       -1.695883   1.000000
    2        1.495696   1.000000
    3        1.593692   1.000000
    4        1.718816   1.000000
    5        3.430595   1.000000
    6        3.968914   1.000000
    7       15.427816   0.000000
    8       22.198209   0.000000
    9       25.166771   0.000000
   10       27.477723   0.000000
   11       29.680927   0.000000
   12       30.911447   0.000000
 
  0.4500000E+00  0.5000000E-01  0.5000000E-01  0.6000000E-02
    1       -1.484976   1.000000
    2        1.329008   1.000000
    3        1.407682   1.000000
    4        3.328583   1.000000
    5        4.099607   1.000000
    6        4.868937   1.000000
    7       11.569056  -0.000000
    8       21.354285   0.000000
    9       24.145643   0.000000
   10       25.291478   0.000000
   11       31.681902   0.000000
   12       32.051211   0.000000
 
 -0.4500000E+00  0.5000000E-01  0.5000000E-01  0.6000000E-02
    1       -1.484840   1.000000
    2        1.254779   1.000000
    3        1.362785   1.000000
    4        3.819980   1.000000
    5        4.421887   1.000000
    6        5.666467   1.000000
    7        9.898746  -0.000000
    8       21.123039   0.000000
    9       24.183918   0.000000
   10       24.296816   0.000000
   11       32.265864   0.000000
   12       32.353175   0.000000
 
 -0.3500000E+00  0.5000000E-01  0.5000000E-01  0.6000000E-02
    1       -1.507574   1.000000
    2        1.362535   1.000000
    3        1.485795   1.000000
    4        2.718364   1.000000
    5        4.193237   1.000000
    6        4.289859   1.000000
    7       12.769677   0.000000
    8       21.603563   0.000000
    9       24.654438   0.000000
   10       25.526569   0.000000
   11       31.632426   0.000000
   12       31.734114   0.000000
 
 -0.2500000E+00  0.5000000E-01  0.5000000E-01  0.6000000E-02
    1       -1.920851   1.000000
    2        1.270950   1.000000
    3        1.608042   1.000000
    4        1.678120   1.000000
    5        3.326946   1.000000
    6        3.630074   1.000000
    7       16.799222   0.000000
    8       22.588708   0.000000
    9       25.711371   0.000000
   10       27.601976   0.000000
   11       29.383551   0.000000
   12       31.182412   0.000000
 
 -0.1500000E+00  0.5000000E-01  0.5000000E-01  0.6000000E-02
    1       -2.978729   1.000000
    2        0.993677   1.000000
    3        1.688969   1.000000
    4        1.703438   1.000000
    5        2.842082   1.000000
    6        3.203762   1.000000
    7       20.768897   0.000000
    8       22.992644   0.000000
    9       26.096225   0.000000
   10       27.553834   0.000000
   11       29.367228   0.000000
   12       31.944309   0.000000
 
 -0.5000000E-01  0.5000000E-01  0.5000000E-01  0.6000000E-02
    1       -3.869710   1.000000
    2        1.189970   1.000000
    3        1.482368   1.000000
    4        1.488479   1.000000
    5        2.908820   1.000000
    6        3.111478   1.000000
    7       22.129653   0.000000
    8       24.346887   0.000000
    9       25.861821   0.000000
   10       26.217830   0.000000
   11       31.811095   0.000000
   12       33.695574   0.000000
 
  0.1500000E+00  0.1500000E+00  0.5000000E-01  0.6000000E-02
    1       -3.395372   1.000000
    2        0.950673   1.000000
    3        1.703848   1.000000
    4        1.707978   1.000000
    5        2.664179   1.000000
    6        3.234519   1.000000
    7       22.618254   0.000000
    8       23.461659   0.000000
    9       25.280929   0.000000
   10       25.856840   0.000000
   11       31.234526   0.000000
   12       32.777164   0.000000
 
  0.2500000E+00  0.1500000E+00  0.5000000E-01  0.1200000E-01
    1       -2.535195   1.000000
    2        0.675034   1.000000
    3        1.806938   1.000000
    4        2.013057   1.000000
    5        2.600426   1.000000
    6        3.478672   1.000000
    7       21.035335   0.000000
    8       22.821634   0.000000
    9       24.804473   0.000000
   10       26.088086   0.000000
   11       29.193368   0.000000
   12       31.911083   0.000000
 
  0.3500000E+00  0.1500000E+00  0.5000000E-01  0.1200000E-01
    1       -1.491326   1.000000
    2        0.764825   1.000000
    3        1.470553   1.000000
    4        2.022470   1.000000
    5        3.328906   1.000000
    6        4.114198   1.000000
    7       17.034439   0.000000
    8       22.294190   0.000000
    9       23.741054   0.000000
   10       26.109973   0.000000
   11       29.832180   0.000000
   12       31.549360   0.000000
 
  0.4500000E+00  0.1500000E+00  0.5000000E-01  0.1200000E-01
    1       -1.108058   1.000000
    2        1.135920   1.000000
    3        1.718729   1.000000
    4        1.894885   1.000000
    5        4.168185   1.000000
    6        5.353265   1.000000
    7       12.944309   0.000000
    8       21.661696   0.000000
    9       22.542137   0.000000
   10       24.779240   0.000000
   11       31.600718   0.000000
   12       32.836597   0.000000
 
 -0.4500000E+00  0.1500000E+00  0.5000000E-01  0.1200000E-01
    1       -1.092186   1.000000
    2        0.994096   1.000000
    3        1.691428   1.000000
    4        2.676110   1.000000
    5        4.366595   1.000000
    6        7.226835  -0.000000
    7        9.860415  -0.000000
    8       21.166850   0.000000
    9       22.215824   0.000000
   10       23.896078   0.000000
   11       32.215276   0.000000
   12       33.221396   0.000000
 
 -0.3500000E+00  0.1500000E+00  0.5000000E-01  0.1200000E-01
    1       -1.070110   1.000000
    2        1.084147   1.000000
    3        1.718895   1.000000
    4        2.314210   1.000000
    5        4.006991   1.000000
    6        6.093244   1.018993
    7       11.780183  -0.000000
    8       20.977413   0.000000
    9       22.494761   0.000000
   10       24.941148   0.000000
   11       31.259697   0.000000
   12       32.911202   0.000000
 
 -0.2500000E+00  0.1500000E+00  0.5000000E-01  0.1200000E-01
    1       -1.243826   1.000000
    2        1.072303   1.000000
    3        1.409768   1.000000
    4        1.927504   1.000000
    5        3.233866   1.000000
    6        4.701742   1.000000
    7       15.669691   0.000000
    8       21.308444   0.000000
    9       23.590325   0.000000
   10       27.017903   0.000000
   11       29.298311   0.000000
   12       31.981630   0.000000
 
 -0.1500000E+00  0.1500000E+00  0.5000000E-01  0.1200000E-01
    1       -2.163434   1.000000
    2        0.721403   1.000000
    3        1.688295   1.000000
    4        2.038191   1.000000
    5        2.595432   1.000000
    6        3.764343   1.000000
    7       19.629336   0.000000
    8       21.968072   0.000000
    9       25.337682   0.000000
   10       26.374429   0.000000
   11       30.109185   0.000000
   12       30.949748   0.000000
 
 -0.5000000E-01  0.1500000E+00  0.5000000E-01  0.1200000E-01
    1       -3.176480   1.000000
    2        0.953585   1.000000
    3        1.705016   1.000000
    4        1.716770   1.000000
    5        2.707829   1.000000
    6        3.244153   1.000000
    7       21.985012   0.000000
    8       22.803625   0.000000
    9       25.353592   0.000000
   10       27.190388   0.000000
   11       29.740798   0.000000
   12       32.857165   0.000000
 
  0.2500000E+00  0.2500000E+00  0.5000000E-01  0.6000000E-02
    1       -1.965993   1.000000
    2        0.283054   1.000000
    3        1.971165   1.000000
    4        2.434269   1.000000
    5        2.642630   1.000000
    6        3.613648   1.000000
    7       21.551034   0.000000
    8       22.741071   0.000000
    9       23.657210   0.000000
   10       24.582541   0.000000
   11       26.273775   0.000000
   12       33.259564   0.000000
 
  0.3500000E+00  0.2500000E+00  0.5000000E-01  0.1200000E-01
    1       -1.143556   1.000000
    2        0.035620   1.000000
    3        1.684173   1.000000
    4        2.817951   1.000000
    5        3.366443   1.000000
    6        4.139965   1.000000
    7       18.792406   0.000000
    8       20.790449   0.000000
    9       22.417995   0.000000
   10       25.198456   0.000000
   11       26.623696   0.000000
   12       33.358009   0.000000
 
  0.4500000E+00  0.2500000E+00  0.5000000E-01  0.1200000E-01
    1       -0.671686   1.000000
    2        0.313832   1.000000
    3        1.414031   1.000000
    4        2.668533   1.000000
    5        4.266748   1.000000
    6        5.651891   1.000000
    7       14.592831   0.000000
    8       20.105608   0.000000
    9       20.641271   0.000000
   10       24.757466   0.000000
   11       29.897546   0.000000
   12       33.409141   0.000000
 
 -0.4500000E+00  0.2500000E+00  0.5000000E-01  0.1200000E-01
    1       -0.547338   1.000000
    2        0.596586   1.000000
    3        1.627347   1.000000
    4        2.447066   1.000000
    5        4.405599   1.000000
    6        8.217780  -0.000000
    7       10.891638  -0.000000
    8       18.794226   0.000000
    9       20.711339   0.000000
   10       24.252335   0.000000
   11       32.488814   0.000000
   12       34.238570   0.000000
 
 -0.3500000E+00  0.2500000E+00  0.5000000E-01  0.1200000E-01
    1       -0.357857   1.000000
    2        0.669736   1.000000
    3        1.642687   1.000000
    4        2.331989   1.000000
    5        3.955952   1.000000
    6        8.051471  -0.000000
    7       11.474000  -0.000000
    8       17.667044   0.000000
    9       21.935902   0.000000
   10       24.433901   0.000000
   11       31.566053   0.000000
   12       34.010078   0.000000
 
 -0.2500000E+00  0.2500000E+00  0.5000000E-01  0.1200000E-01
    1       -0.259650   1.000000
    2        0.761027   1.000000
    3        1.031616   1.000000
    4        2.420115   1.000000
    5        3.190783   1.000000
    6        6.212900   1.032204
    7       14.952022   0.000000
    8       17.603692   0.000000
    9       23.097843   0.000000
   10       26.080458   0.000000
   11       29.208851   0.000000
   12       33.881821   0.000000
 
 -0.1500000E+00  0.2500000E+00  0.5000000E-01  0.1200000E-01
    1       -1.070636   1.000000
    2        0.633919   1.000000
    3        1.381558   1.000000
    4        2.288669   1.000000
    5        2.747752   1.000000
    6        4.803068   1.000000
    7       17.139513   0.000000
    8       19.908590   0.000000
    9       24.067979   0.000000
   10       27.215738   0.000000
   11       28.574327   0.000000
   12       32.561477   0.000000
 
 -0.5000000E-01  0.2500000E+00  0.5000000E-01  0.1200000E-01
    1       -2.080283   1.000000
    2        0.917707   1.000000
    3        1.660791   1.000000
    4        1.827273   1.000000
    5        2.954796   1.000000
    6        3.685532   1.000000
    7       18.254030   0.000000
    8       22.736823   0.000000
    9       25.081629   0.000000
   10       27.463997   0.000000
   11       29.484326   0.000000
   12       30.764675   0.000000
 
  0.3500000E+00  0.3500000E+00  0.5000000E-01  0.6000000E-02
    1       -1.017899   1.000000
    2       -0.380040   1.000000
    3        2.631158   1.000000
    4        3.404750   1.000000
    5        3.855137   1.000000
    6        4.073663   1.000000
    7       18.738166   0.000000
    8       19.689645   0.000000
    9       20.067347   0.000000
   10       24.041890   0.000000
   11       25.984964   0.000000
   12       35.795279   0.000000
 
  0.4500000E+00  0.3500000E+00  0.5000000E-01  0.1200000E-01
    1       -0.876088   1.000000
    2       -0.498405   1.000000
    3        2.692299   1.000000
    4        3.735507   1.000000
    5        4.282788   1.000000
    6        5.680105   1.000001
    7       15.845411   0.000000
    8       17.981084   0.000000
    9       18.602454   0.000000
   10       25.108119   0.000000
   11       27.053461   0.000000
   12       35.402227   0.000000
 
 -0.4500000E+00  0.3500000E+00  0.5000000E-01  0.1200000E-01
    1       -0.698342   1.000000
    2       -0.159714   1.000000
    3        2.302017   1.000000
    4        3.397405   1.000000
    5        4.515820   1.000000
    6        8.449649  -0.000000
    7       12.467228   0.000000
    8       16.266618   0.000000
    9       18.694540   0.000000
   10       25.297057   0.000000
   11       29.874831   0.000000
   12       34.385250   0.000000
 
 -0.3500000E+00  0.3500000E+00  0.5000000E-01  0.1200000E-01
    1       -0.377316   1.000000
    2        0.391955   1.000000
    3        1.705358   1.000000
    4        3.030759   1.000000
    5        4.149576   1.000000
    6        9.721055  -0.000000
    7       11.902279   0.000000
    8       14.556254   0.000000
    9       20.119176   0.000000
   10       24.985807   0.000000
   11       32.934623   0.000000
   12       33.531077   0.000000
 
 -0.2500000E+00  0.3500000E+00  0.5000000E-01  0.1200000E-01
    1       -0.059486   1.000000
    2        0.712536   1.000000
    3        1.161738   1.000000
    4        2.633198   1.000000
    5        3.689688   1.000000
    6        7.885767  -0.000000
    7       13.387405   0.000000
    8       15.555683   0.000000
    9       21.969124   0.000000
   10       24.836730   0.000000
   11       31.151423   0.000000
   12       34.240513   0.000000
 
 -0.1500000E+00  0.3500000E+00  0.5000000E-01  0.1200000E-01
    1       -0.681750   1.000000
    2        0.971845   1.000000
    3        1.499685   1.000000
    4        2.082606   1.000000
    5        3.591965   1.000000
    6        6.180090   1.035317
    7       13.329102   0.000000
    8       19.359093   0.000000
    9       22.772820   0.000000
   10       25.533516   0.000000
   11       30.130279   0.000000
   12       33.360497   0.000000
 
 -0.5000000E-01  0.3500000E+00  0.5000000E-01  0.1200000E-01
    1       -1.418530   1.000000
    2        1.364237   1.000000
    3        1.638595   1.000000
    4        1.877849   1.000000
    5        3.735385   1.000000
    6        4.506067   1.000000
    7       14.143616   0.000000
    8       21.916005   0.000000
    9       23.879107   0.000000
   10       26.268533   0.000000
   11       30.578081   0.000000
   12       31.722196   0.000000
 
  0.4500000E+00  0.4500000E+00  0.5000000E-01  0.6000000E-02
    1       -1.165801   1.000000
    2       -0.814931   1.000000
    3        4.148138   1.000000
    4        4.173910   1.000000
    5        4.553700   1.000000
    6        6.105150   1.021671
    7       14.528757   0.000000
    8       17.142210   0.000000
    9       17.465650   0.000000
   10       24.427432   0.000000
   11       26.927646   0.000000
   12       36.703530   0.000000
 
 -0.4500000E+00  0.4500000E+00  0.5000000E-01  0.1200000E-01
    1       -1.089253   1.000000
    2       -0.759317   1.000000
    3        3.715654   1.000000
    4        4.117087   1.000000
    5        4.716763   1.000000
    6        8.211802  -0.000000
    7       12.603387   0.000000
    8       16.093994   0.000000
    9       17.063167   0.000000
   10       25.420839   0.000000
   11       27.483683   0.000000
   12       35.804748   0.000000
 
 -0.3500000E+00  0.4500000E+00  0.5000000E-01  0.1200000E-01
    1       -0.759152   1.000000
    2       -0.257910   1.000000
    3        2.619143   1.000000
    4        3.587682   1.000000
    5        4.510049   1.000000
    6        9.910236  -0.000000
    7       11.594247  -0.000000
    8       14.887805   0.000000
    9       18.328219   0.000000
   10       25.525829   0.000000
   11       29.898761   0.000000
   12       34.516256   0.000000
 
 -0.2500000E+00  0.4500000E+00  0.5000000E-01  0.1200000E-01
    1       -0.410743   1.000000
    2        0.442041   1.000000
    3        1.659000   1.000000
    4        2.784993   1.000000
    5        4.288116   1.000000
    6        9.876300  -0.000000
    7       10.303482  -0.000000
    8       16.609417   0.000000
    9       20.316609   0.000000
   10       24.671721   0.000000
   11       32.685820   0.000000
   12       33.917104   0.000000
 
 -0.1500000E+00  0.4500000E+00  0.5000000E-01  0.1200000E-01
    1       -0.747539   1.000000
    2        0.799685   1.000000
    3        1.982937   1.000000
    4        2.168885   1.000000
    5        4.221823   1.000000
    6        8.124241  -0.000000
    7        9.993447  -0.000000
    8       19.722427   0.000000
    9       21.897493   0.000000
   10       23.984846   0.000000
   11       32.028624   0.000000
   12       33.659122   0.000000
 
 -0.5000000E-01  0.4500000E+00  0.5000000E-01  0.1200000E-01
    1       -1.344311   1.000000
    2        1.185725   1.000000
    3        1.492572   1.000000
    4        3.129881   1.000000
    5        4.314435   1.000000
    6        5.908925   1.000694
    7       10.571464  -0.000000
    8       21.305019   0.000000
    9       23.312572   0.000000
   10       24.483195   0.000000
   11       32.067712   0.000000
   12       32.596191   0.000000
 
 -0.4500000E+00 -0.4500000E+00  0.5000000E-01  0.6000000E-02
    1       -1.250180   1.000000
    2       -0.907410   1.000000
    3        4.306440   1.000000
    4        4.479702   1.000000
    5        4.731263   1.000000
    6        7.314707  -0.000000
    7       12.883011   0.000000
    8       16.590544   0.000000
    9       16.954723   0.000000
   10       24.593076   0.000000
   11       27.122887   0.000000
   12       36.480599   0.000000
 
 -0.3500000E+00 -0.4500000E+00  0.5000000E-01  0.1200000E-01
    1       -1.002364   1.000000
    2       -0.670566   1.000000
    3        3.310570   1.000000
    4        4.040344   1.000000
    5        4.543277   1.000000
    6        6.982617  -0.000340
    7       14.100714   0.000000
    8       16.743007   0.000000
    9       17.566077   0.000000
   10       25.276282   0.000000
   11       27.333762   0.000000
   12       35.767120   0.000000
 
 -0.2500000E+00 -0.4500000E+00  0.5000000E-01  0.1200000E-01
    1       -0.630923   1.000000
    2        0.039616   1.000000
    3        1.830979   1.000000
    4        3.057871   1.000000
    5        4.461058   1.000000
    6        6.947447  -0.000800
    7       13.456940   0.000000
    8       18.230245   0.000000
    9       19.422114   0.000000
   10       24.969818   0.000000
   11       29.868073   0.000000
   12       34.031077   0.000000
 
 -0.1500000E+00 -0.4500000E+00  0.5000000E-01  0.1200000E-01
    1       -0.798983   1.000000
    2        0.852866   1.000000
    3        1.658417   1.000000
    4        2.123139   1.000000
    5        4.386674   1.000000
    6        6.635881  -0.027385
    7       11.842318  -0.000000
    8       20.831574   0.000000
    9       21.266461   0.000000
   10       24.098638   0.000000
   11       32.193092   0.000000
   12       33.938765   0.000000
 
 -0.3500000E+00 -0.3500000E+00  0.5000000E-01  0.6000000E-02
    1       -1.044675   1.000000
    2       -0.635438   1.000000
    3        3.489356   1.000000
    4        3.860283   1.000000
    5        4.307489   1.000000
    6        4.800899   1.000000
    7       16.734163   0.000000
    8       18.230630   0.000000
    9       18.412444   0.000000
   10       24.197058   0.000000
   11       26.539529   0.000000
   12       36.815675   0.000000
 
 -0.2500000E+00 -0.3500000E+00  0.5000000E-01  0.1200000E-01
    1       -0.845591   1.000000
    2       -0.256501   1.000000
    3        2.042016   1.000000
    4        3.288145   1.000000
    5        3.908625   1.000000
    6        4.704182   1.000000
    7       17.406894   0.000000
    8       19.389697   0.000000
    9       20.357598   0.000000
   10       25.061889   0.000000
   11       26.708503   0.000000
   12       34.503065   0.000000
 
 -0.1500000E+00 -0.3500000E+00  0.5000000E-01  0.1200000E-01
    1       -0.964546   1.000000
    2        0.574214   1.000000
    3        1.290243   1.000000
    4        2.309038   1.000000
    5        3.868972   1.000000
    6        4.701542   1.000000
    7       15.807251   0.000000
    8       21.372734   0.000000
    9       22.350271   0.000000
   10       25.017468   0.000000
   11       29.921579   0.000000
   12       32.547741   0.000000
 
 -0.2500000E+00 -0.2500000E+00  0.5000000E-01  0.6000000E-02
    1       -1.309546   1.000000
    2       -0.065878   1.000000
    3        2.056277   1.000000
    4        2.905420   1.000000
    5        3.173674   1.000000
    6        3.842154   1.000000
    7       20.285315   0.000000
    8       21.178664   0.000000
    9       22.408396   0.000000
   10       24.270811   0.000000
   11       25.353597   0.000000
   12       34.433502   0.000000
 
 -0.1500000E+00 -0.2500000E+00  0.5000000E-01  0.1200000E-01
    1       -1.794358   1.000000
    2        0.355964   1.000000
    3        1.712561   1.000000
    4        2.384663   1.000000
    5        2.852749   1.000000
    6        3.774742   1.000000
    7       19.997380   0.000000
    8       22.081363   0.000000
    9       24.096311   0.000000
   10       25.231317   0.000000
   11       27.640518   0.000000
   12       32.308517   0.000000
 
 -0.1500000E+00 -0.1500000E+00  0.5000000E-01  0.6000000E-02
    1       -2.730112   1.000000
    2        0.633978   1.000000
    3        1.966070   1.000000
    4        2.026335   1.000000
    5        2.433700   1.000000
    6        3.406256   1.000000
    7       22.471756   0.000000
    8       23.421424   0.000000
    9       24.191038   0.000000
   10       25.063221   0.000000
   11       28.973992   0.000000
   12       32.645981   0.000000
 
  0.1500000E+00  0.1500000E+00  0.1500000E+00  0.2000000E-02
    1       -3.410271   1.000000
    2        1.119034   1.000000
    3        1.584861   1.000000
    4        1.584861   1.000000
    5        2.995097   1.000000
    6        2.995097   1.000000
    7       21.822024   0.000000
    8       22.842203   0.000000
    9       26.810094   0.000000
   10       26.810094   0.000000
   11       30.211846   0.000000
   12       32.795413   0.000000
 
  0.2500000E+00  0.1500000E+00  0.1500000E+00  0.6000000E-02
    1       -2.753938   1.000000
    2        0.890321   1.000000
    3        1.723624   1.000000
    4        1.814340   1.000000
    5        2.645696   1.000000
    6        3.419578   1.000000
    7       20.786965   0.000000
    8       22.538306   0.000000
    9       25.401347   0.000000
   10       27.764253   0.000000
   11       28.879316   0.000000
   12       32.422188   0.000000
 
  0.3500000E+00  0.1500000E+00  0.1500000E+00  0.6000000E-02
    1       -1.653801   1.000000
    2        0.715654   1.000000
    3        1.598237   1.000000
    4        2.125297   1.000000
    5        2.542943   1.000000
    6        4.232675   1.000000
    7       18.338051   0.000000
    8       20.996835   0.000000
    9       25.012277   0.000000
   10       26.752279   0.000000
   11       29.590675   0.000000
   12       31.580197   0.000000
 
  0.4500000E+00  0.1500000E+00  0.1500000E+00  0.6000000E-02
    1       -0.970273   1.000000
    2        1.138634   1.000000
    3        1.522181   1.000000
    4        1.896278   1.000000
    5        3.291593   1.000000
    6        5.376592   1.000000
    7       14.436923   0.000000
    8       20.318252   0.000000
    9       23.341008   0.000000
   10       26.600752   0.000000
   11       29.300720   0.000000
   12       32.696489   0.000000
 
 -0.4500000E+00  0.1500000E+00  0.1500000E+00  0.6000000E-02
    1       -0.950859   1.000000
    2        0.978065   1.000000
    3        1.773523   1.000000
    4        2.428620   1.000000
    5        4.059378   1.000000
    6        6.991341  -0.000273
    7       10.791579  -0.000000
    8       20.284375   0.000000
    9       22.694447   0.000000
   10       24.125798   0.000000
   11       31.787256   0.000000
   12       32.932016   0.000000
 
 -0.3500000E+00  0.1500000E+00  0.1500000E+00  0.6000000E-02
    1       -0.993851   1.000000
    2        0.947634   1.000000
    3        1.829350   1.000000
    4        2.249346   1.000000
    5        4.457754   1.000000
    6        6.944562  -0.000855
    7       10.610063  -0.000000
    8       20.959243   0.000000
    9       22.776813   0.000000
   10       23.069479   0.000000
   11       32.844955   0.000000
   12       33.141169   0.000000
 
 -0.2500000E+00  0.1500000E+00  0.1500000E+00  0.6000000E-02
    1       -1.068413   1.000000
    2        1.047322   1.000000
    3        1.313039   1.000000
    4        2.008445   1.000000
    5        4.288311   1.000000
    6        4.769276   1.000000
    7       14.296267   0.000000
    8       22.047974   0.000000
    9       22.633853   0.000000
   10       24.266444   0.000000
   11       31.766175   0.000000
   12       32.628298   0.000000
 
 -0.1500000E+00  0.1500000E+00  0.1500000E+00  0.6000000E-02
    1       -1.685857   1.000000
    2        0.497570   1.000000
    3        1.607049   1.000000
    4        2.159108   1.000000
    5        3.238726   1.000000
    6        3.782223   1.000000
    7       18.519832   0.000000
    8       23.250032   0.000000
    9       23.283785   0.000000
   10       25.441728   0.000000
   11       28.662018   0.000000
   12       32.533312   0.000000
 
  0.2500000E+00  0.2500000E+00  0.1500000E+00  0.6000000E-02
    1       -2.376928   1.000000
    2        0.768017   1.000000
    3        1.743431   1.000000
    4        1.893691   1.000000
    5        2.847110   1.000000
    6        3.476575   1.000000
    7       19.663412   0.000000
    8       23.216209   0.000000
    9       24.828729   0.000000
   10       26.890811   0.000000
   11       29.054989   0.000000
   12       31.933844   0.000000
 
  0.3500000E+00  0.2500000E+00  0.1500000E+00  0.1200000E-01
    1       -1.477658   1.000000
    2        0.485995   1.000000
    3        1.495883   1.000000
    4        2.351182   1.000000
    5        2.825270   1.000000
    6        4.210008   1.000000
    7       18.487830   0.000000
    8       21.029683   0.000000
    9       24.169945   0.000000
   10       26.167780   0.000000
   11       29.236188   0.000000
   12       31.359415   0.000000
 
  0.4500000E+00  0.2500000E+00  0.1500000E+00  0.1200000E-01
    1       -0.512708   1.000000
    2        0.510579   1.000000
    3        1.058927   1.000000
    4        2.599303   1.000000
    5        3.170074   1.000000
    6        5.482519   1.000000
    7       16.015292   0.000000
    8       18.752324   0.000000
    9       22.690008   0.000000
   10       27.058401   0.000000
   11       28.509067   0.000000
   12       33.187957   0.000000
 
 -0.4500000E+00  0.2500000E+00  0.1500000E+00  0.1200000E-01
    1       -0.383487   1.000000
    2        0.695758   1.000000
    3        1.388417   1.000000
    4        2.379794   1.000000
    5        3.944357   1.000000
    6        7.221907  -0.000000
    7       12.349825   0.000000
    8       18.474477   0.000000
    9       21.317028   0.000000
   10       25.467736   0.000000
   11       30.666843   0.000000
   12       34.413706   0.000000
 
 -0.3500000E+00  0.2500000E+00  0.1500000E+00  0.1200000E-01
    1       -0.461267   1.000000
    2        0.595135   1.000000
    3        1.752993   1.000000
    4        2.305933   1.000000
    5        4.277352   1.000000
    6        8.914187  -0.000000
    7        9.980749  -0.000000
    8       19.127297   0.000000
    9       20.261107   0.000000
   10       24.904087   0.000000
   11       31.655956   0.000000
   12       34.868171   0.000000
 
 -0.2500000E+00  0.2500000E+00  0.1500000E+00  0.1200000E-01
    1       -0.512742   1.000000
    2        0.692831   1.000000
    3        1.141398   1.000000
    4        2.522048   1.000000
    5        4.083514   1.000000
    6        6.439051   0.466846
    7       13.373088   0.000000
    8       19.368137   0.000000
    9       20.874095   0.000000
   10       25.458115   0.000000
   11       30.630620   0.000000
   12       33.619848   0.000000
 
 -0.1500000E+00  0.2500000E+00  0.1500000E+00  0.1200000E-01
    1       -0.848665   1.000000
    2        0.233323   1.000000
    3        1.305004   1.000000
    4        2.739705   1.000000
    5        3.277483   1.000000
    6        4.769087   1.000000
    7       17.306523   0.000000
    8       19.854237   0.000000
    9       22.486929   0.000000
   10       26.263102   0.000000
   11       28.196687   0.000000