       N       E                     dE             d eps       ncg     rms          rms(c)
DAV:   1     0.305238623497E+02    0.30524E+02   -0.35677E+03  3220   0.432E+02
DAV:   2    -0.436843983592E+01   -0.34892E+02   -0.32596E+02  3036   0.144E+02
DAV:   3    -0.469129571186E+01   -0.32286E+00   -0.32272E+00  3160   0.143E+01
DAV:   4    -0.469210235186E+01   -0.80664E-03   -0.80662E-03  3124   0.748E-01
DAV:   5    -0.469210757627E+01   -0.52244E-05   -0.52249E-05  2928   0.585E-02    0.319E+00
DAV:   6    -0.440707941692E+01    0.28503E+00   -0.70494E-01  3108   0.834E+00    0.872E-01
DAV:   7    -0.437881329315E+01    0.28266E-01   -0.56918E-02  3160   0.202E+00    0.265E-01
DAV:   8    -0.437351662536E+01    0.52967E-02   -0.18500E-03  2984   0.468E-01    0.955E-03
DAV:   9    -0.437351281718E+01    0.38082E-05   -0.93639E-06  1944   0.215E-02
   1 F= -.43735128E+01 E0= -.43737099E+01  d E =0.591162E-03
