 vasp.5.4.4.18Apr17-6-g9f103f2a35 (build May 18 2018 14:42:58) complex          
  
 executed on             LinuxIFC date 2020.06.30  13:40:51
 running on    4 total cores
 distrk:  each k-point on    4 cores,    1 groups
 distr:  one band on NCORES_PER_BAND=   1 cores,    4 groups


--------------------------------------------------------------------------------------------------------


 INCAR:
 POTCAR:   PAW Au 04Feb1998                       
 POTCAR:   PAW Au 04Feb1998                       
   VRHFIN =Au: s1d10                                                            
   LEXCH  = CA                                                                  
   EATOM  =   929.4667 eV,   68.3139 Ry                                         
                                                                                
   TITEL  = PAW Au 04Feb1998                                                    
   LULTRA =        F    use ultrasoft PP ?                                      
   IUNSCR =        1    unscreen: 0-lin 1-nonlin 2-no                           
   RPACOR =    2.330    partial core radius                                     
   POMASS =  196.966; ZVAL   =   11.000    mass and valenz                      
   RCORE  =    2.500    outmost cutoff radius                                   
   RWIGS  =    2.840; RWIGS  =    1.503    wigner-seitz radius (au A)           
   ENMAX  =  229.869; ENMIN  =  172.402 eV                                      
   RCLOC  =    1.964    cutoff for local pot                                    
   LCOR   =        T    correct aug charges                                     
   LPAW   =        T    paw PP                                                  
   EAUG   =  356.670                                                            
   DEXC   =    -.020                                                            
   RMAX   =    3.041    core radius for proj-oper                               
   RDEP   =    2.598    core radius for depl-charge                             
   QCUT   =   -4.110; QGAM   =    8.221    optimization parameters              
                                                                                
   Description                                                                  
     l     E      TYP  RCUT    TYP  RCUT                                        
     2   .000     23  2.500                                                     
     2   .000     23  2.500                                                     
     0   .000     23  2.500                                                     
     0   .000     23  2.500                                                     
     1  -.200     23  2.500                                                     
     1   .000     23  2.500                                                     
     3   .000      7   .000                                                     
  local pseudopotential read in
  partial core-charges read in
  atomic valenz-charges read in
  non local Contribution for L=           2  read in
    real space projection operators read in
  non local Contribution for L=           2  read in
    real space projection operators read in
  non local Contribution for L=           0  read in
    real space projection operators read in
  non local Contribution for L=           0  read in
    real space projection operators read in
  non local Contribution for L=           1  read in
    real space projection operators read in
  non local Contribution for L=           1  read in
    real space projection operators read in
    PAW grid and wavefunctions read in
 
   number of l-projection  operators is LMAX  =           6
   number of lm-projection operators is LMMAX =          18
 
 PAW Au 04Feb1998                       :
 energy of atom  1       EATOM= -929.4667
 kinetic energy error for atom=    0.0706 (will be added to EATOM!!)
 
 
 POSCAR: FCC Au Bulk                             
  positions in direct lattice
  No initial velocities read in
 exchange correlation table for  LEXCH =        2
   RHO(1)=    0.500       N(1)  =     2000
   RHO(2)=  100.500       N(2)  =     4000
 


--------------------------------------------------------------------------------------------------------


 ion  position               nearest neighbor table
   1  0.000  0.000  0.000-
 
  LATTYP: Found a face centered cubic cell.
 ALAT       =     4.0000000000
  
  Lattice vectors:
  
 A1 = (   0.0000000000,   2.0000000000,   2.0000000000)
 A2 = (   2.0000000000,   0.0000000000,   2.0000000000)
 A3 = (   2.0000000000,   2.0000000000,   0.0000000000)


Analysis of symmetry for initial positions (statically):
=====================================================================
 Subroutine PRICEL returns:
 Original cell was already a primitive cell.
 

 Routine SETGRP: Setting up the symmetry group for a 
 face centered cubic supercell.


 Subroutine GETGRP returns: Found 48 space group operations
 (whereof 48 operations were pure point group operations)
 out of a pool of 48 trial point group operations.


The static configuration has the point symmetry O_h .


Analysis of symmetry for dynamics (positions and initial velocities):
=====================================================================
 Subroutine PRICEL returns:
 Original cell was already a primitive cell.
 

 Routine SETGRP: Setting up the symmetry group for a 
 face centered cubic supercell.


 Subroutine GETGRP returns: Found 48 space group operations
 (whereof 48 operations were pure point group operations)
 out of a pool of 48 trial point group operations.


The dynamic configuration has the point symmetry O_h .


 Subroutine INISYM returns: Found 48 space group operations
 (whereof 48 operations are pure point group operations),
 and found     1 'primitive' translations

 
 
 KPOINTS: 10x10x10                                

Automatic generation of k-mesh.
Space group operators:
 irot       det(A)        alpha          n_x          n_y          n_z        tau_x        tau_y        tau_z
    1     1.000000     0.000000     1.000000     0.000000     0.000000     0.000000     0.000000     0.000000
    2    -1.000000     0.000000     1.000000     0.000000     0.000000     0.000000     0.000000     0.000000
    3     1.000000   120.000000    -0.577350    -0.577350    -0.577350     0.000000     0.000000     0.000000
    4    -1.000000   120.000000    -0.577350    -0.577350    -0.577350     0.000000     0.000000     0.000000
    5     1.000000   120.000000     0.577350     0.577350     0.577350     0.000000     0.000000     0.000000
    6    -1.000000   120.000000     0.577350     0.577350     0.577350     0.000000     0.000000     0.000000
    7     1.000000    90.000000     0.000000     0.000000    -1.000000     0.000000     0.000000     0.000000
    8    -1.000000    90.000000     0.000000     0.000000    -1.000000     0.000000     0.000000     0.000000
    9     1.000000   180.000000     0.000000     0.707107     0.707107     0.000000     0.000000     0.000000
   10    -1.000000   180.000000     0.000000     0.707107     0.707107     0.000000     0.000000     0.000000
   11     1.000000    90.000000     0.000000     1.000000     0.000000     0.000000     0.000000     0.000000
   12    -1.000000    90.000000     0.000000     1.000000     0.000000     0.000000     0.000000     0.000000
   13     1.000000   180.000000     0.000000     0.000000     1.000000     0.000000     0.000000     0.000000
   14    -1.000000   180.000000     0.000000     0.000000     1.000000     0.000000     0.000000     0.000000
   15     1.000000   120.000000    -0.577350     0.577350     0.577350     0.000000     0.000000     0.000000
   16    -1.000000   120.000000    -0.577350     0.577350     0.577350     0.000000     0.000000     0.000000
   17     1.000000   120.000000    -0.577350     0.577350    -0.577350     0.000000     0.000000     0.000000
   18    -1.000000   120.000000    -0.577350     0.577350    -0.577350     0.000000     0.000000     0.000000
   19     1.000000    90.000000     0.000000     0.000000     1.000000     0.000000     0.000000     0.000000
   20    -1.000000    90.000000     0.000000     0.000000     1.000000     0.000000     0.000000     0.000000
   21     1.000000    90.000000    -1.000000     0.000000     0.000000     0.000000     0.000000     0.000000
   22    -1.000000    90.000000    -1.000000     0.000000     0.000000     0.000000     0.000000     0.000000
   23     1.000000   180.000000     0.707107     0.000000     0.707107     0.000000     0.000000     0.000000
   24    -1.000000   180.000000     0.707107     0.000000     0.707107     0.000000     0.000000     0.000000
   25     1.000000   120.000000     0.577350    -0.577350     0.577350     0.000000     0.000000     0.000000
   26    -1.000000   120.000000     0.577350    -0.577350     0.577350     0.000000     0.000000     0.000000
   27     1.000000   120.000000    -0.577350    -0.577350     0.577350     0.000000     0.000000     0.000000
   28    -1.000000   120.000000    -0.577350    -0.577350     0.577350     0.000000     0.000000     0.000000
   29     1.000000   180.000000     1.000000     0.000000     0.000000     0.000000     0.000000     0.000000
   30    -1.000000   180.000000     1.000000     0.000000     0.000000     0.000000     0.000000     0.000000
   31     1.000000    90.000000     0.000000    -1.000000     0.000000     0.000000     0.000000     0.000000
   32    -1.000000    90.000000     0.000000    -1.000000     0.000000     0.000000     0.000000     0.000000
   33     1.000000   180.000000     0.707107     0.707107     0.000000     0.000000     0.000000     0.000000
   34    -1.000000   180.000000     0.707107     0.707107     0.000000     0.000000     0.000000     0.000000
   35     1.000000    90.000000     1.000000     0.000000     0.000000     0.000000     0.000000     0.000000
   36    -1.000000    90.000000     1.000000     0.000000     0.000000     0.000000     0.000000     0.000000
   37     1.000000   120.000000     0.577350    -0.577350    -0.577350     0.000000     0.000000     0.000000
   38    -1.000000   120.000000     0.577350    -0.577350    -0.577350     0.000000     0.000000     0.000000
   39     1.000000   180.000000     0.000000     1.000000     0.000000     0.000000     0.000000     0.000000
   40    -1.000000   180.000000     0.000000     1.000000     0.000000     0.000000     0.000000     0.000000
   41     1.000000   120.000000     0.577350     0.577350    -0.577350     0.000000     0.000000     0.000000
   42    -1.000000   120.000000     0.577350     0.577350    -0.577350     0.000000     0.000000     0.000000
   43     1.000000   180.000000     0.000000    -0.707107     0.707107     0.000000     0.000000     0.000000
   44    -1.000000   180.000000     0.000000    -0.707107     0.707107     0.000000     0.000000     0.000000
   45     1.000000   180.000000     0.707107    -0.707107     0.000000     0.000000     0.000000     0.000000
   46    -1.000000   180.000000     0.707107    -0.707107     0.000000     0.000000     0.000000     0.000000
   47     1.000000   180.000000     0.707107     0.000000    -0.707107     0.000000     0.000000     0.000000
   48    -1.000000   180.000000     0.707107     0.000000    -0.707107     0.000000     0.000000     0.000000
 
 Subroutine IBZKPT returns following result:
 ===========================================
 
 Found    110 irreducible k-points:
 
 Following reciprocal coordinates:
            Coordinates               Weight
  0.050000  0.050000  0.050000     96.000000
  0.150000  0.050000  0.050000    288.000000
  0.250000  0.050000  0.050000    288.000000
  0.350000  0.050000  0.050000    288.000000
  0.450000  0.050000  0.050000    288.000000
 -0.450000  0.050000  0.050000    288.000000
 -0.350000  0.050000  0.050000    288.000000
 -0.250000  0.050000  0.050000    288.000000
 -0.150000  0.050000  0.050000    288.000000
 -0.050000  0.050000  0.050000    288.000000
  0.150000  0.150000  0.050000    288.000000
  0.250000  0.150000  0.050000    576.000000
  0.350000  0.150000  0.050000    576.000000
  0.450000  0.150000  0.050000    576.000000
 -0.450000  0.150000  0.050000    576.000000
 -0.350000  0.150000  0.050000    576.000000
 -0.250000  0.150000  0.050000    576.000000
 -0.150000  0.150000  0.050000    576.000000
 -0.050000  0.150000  0.050000    576.000000
  0.250000  0.250000  0.050000    288.000000
  0.350000  0.250000  0.050000    576.000000
  0.450000  0.250000  0.050000    576.000000
 -0.450000  0.250000  0.050000    576.000000
 -0.350000  0.250000  0.050000    576.000000
 -0.250000  0.250000  0.050000    576.000000
 -0.150000  0.250000  0.050000    576.000000
 -0.050000  0.250000  0.050000    576.000000
  0.350000  0.350000  0.050000    288.000000
  0.450000  0.350000  0.050000    576.000000
 -0.450000  0.350000  0.050000    576.000000
 -0.350000  0.350000  0.050000    576.000000
 -0.250000  0.350000  0.050000    576.000000
 -0.150000  0.350000  0.050000    576.000000
 -0.050000  0.350000  0.050000    576.000000
  0.450000  0.450000  0.050000    288.000000
 -0.450000  0.450000  0.050000    576.000000
 -0.350000  0.450000  0.050000    576.000000
 -0.250000  0.450000  0.050000    576.000000
 -0.150000  0.450000  0.050000    576.000000
 -0.050000  0.450000  0.050000    576.000000
 -0.450000 -0.450000  0.050000    288.000000
 -0.350000 -0.450000  0.050000    576.000000
 -0.250000 -0.450000  0.050000    576.000000
 -0.150000 -0.450000  0.050000    576.000000
 -0.350000 -0.350000  0.050000    288.000000
 -0.250000 -0.350000  0.050000    576.000000
 -0.150000 -0.350000  0.050000    576.000000
 -0.250000 -0.250000  0.050000    288.000000
 -0.150000 -0.250000  0.050000    576.000000
 -0.150000 -0.150000  0.050000    288.000000
  0.150000  0.150000  0.150000     96.000000
  0.250000  0.150000  0.150000    288.000000
  0.350000  0.150000  0.150000    288.000000
  0.450000  0.150000  0.150000    288.000000
 -0.450000  0.150000  0.150000    288.000000
 -0.350000  0.150000  0.150000    288.000000
 -0.250000  0.150000  0.150000    288.000000
 -0.150000  0.150000  0.150000    288.000000
  0.250000  0.250000  0.150000    288.000000
  0.350000  0.250000  0.150000    576.000000
  0.450000  0.250000  0.150000    576.000000
 -0.450000  0.250000  0.150000    576.000000
 -0.350000  0.250000  0.150000    576.000000
 -0.250000  0.250000  0.150000    576.000000
 -0.150000  0.250000  0.150000    576.000000
  0.350000  0.350000  0.150000    288.000000
  0.450000  0.350000  0.150000    576.000000
 -0.450000  0.350000  0.150000    576.000000
 -0.350000  0.350000  0.150000    576.000000
 -0.250000  0.350000  0.150000    576.000000
 -0.150000  0.350000  0.150000    576.000000
  0.450000  0.450000  0.150000    288.000000
 -0.450000  0.450000  0.150000    576.000000
 -0.350000  0.450000  0.150000    576.000000
 -0.250000  0.450000  0.150000    576.000000
 -0.150000  0.450000  0.150000    576.000000
 -0.450000 -0.450000  0.150000    288.000000
 -0.350000 -0.450000  0.150000    576.000000
 -0.250000 -0.450000  0.150000    576.000000
 -0.350000 -0.350000  0.150000    288.000000
 -0.250000 -0.350000  0.150000    576.000000
 -0.250000 -0.250000  0.150000    288.000000
  0.250000  0.250000  0.250000     96.000000
  0.350000  0.250000  0.250000    288.000000
  0.450000  0.250000  0.250000    288.000000
 -0.450000  0.250000  0.250000    288.000000
 -0.350000  0.250000  0.250000    288.000000
 -0.250000  0.250000  0.250000    288.000000
  0.350000  0.350000  0.250000    288.000000
  0.450000  0.350000  0.250000    576.000000
 -0.450000  0.350000  0.250000    576.000000
 -0.350000  0.350000  0.250000    576.000000
 -0.250000  0.350000  0.250000    576.000000
  0.450000  0.450000  0.250000    288.000000
 -0.450000  0.450000  0.250000    576.000000
 -0.350000  0.450000  0.250000    576.000000
 -0.250000  0.450000  0.250000    576.000000
 -0.450000 -0.450000  0.250000    288.000000
 -0.350000 -0.450000  0.250000    576.000000
 -0.350000 -0.350000  0.250000    288.000000
  0.350000  0.350000  0.350000     96.000000
  0.450000  0.350000  0.350000    288.000000
 -0.450000  0.350000  0.350000    288.000000
 -0.350000  0.350000  0.350000    288.000000
  0.450000  0.450000  0.350000    288.000000
 -0.450000  0.450000  0.350000    576.000000
 -0.350000  0.450000  0.350000    576.000000
 -0.450000 -0.450000  0.350000    288.000000
  0.450000  0.450000  0.450000     96.000000
 -0.450000  0.450000  0.450000    288.000000
 
 Following cartesian coordinates:
            Coordinates               Weight
  0.050000  0.050000  0.050000     96.000000
 -0.050000  0.150000  0.150000    288.000000
 -0.150000  0.250000  0.250000    288.000000
 -0.250000  0.350000  0.350000    288.000000
 -0.350000  0.450000  0.450000    288.000000
  0.550000 -0.450000 -0.450000    288.000000
  0.450000 -0.350000 -0.350000    288.000000
  0.350000 -0.250000 -0.250000    288.000000
  0.250000 -0.150000 -0.150000    288.000000
  0.150000 -0.050000 -0.050000    288.000000
  0.050000  0.050000  0.250000    288.000000
 -0.050000  0.150000  0.350000    576.000000
 -0.150000  0.250000  0.450000    576.000000
 -0.250000  0.350000  0.550000    576.000000
  0.650000 -0.550000 -0.350000    576.000000
  0.550000 -0.450000 -0.250000    576.000000
  0.450000 -0.350000 -0.150000    576.000000
  0.350000 -0.250000 -0.050000    576.000000
  0.250000 -0.150000  0.050000    576.000000
  0.050000  0.050000  0.450000    288.000000
 -0.050000  0.150000  0.550000    576.000000
 -0.150000  0.250000  0.650000    576.000000
  0.750000 -0.650000 -0.250000    576.000000
  0.650000 -0.550000 -0.150000    576.000000
  0.550000 -0.450000 -0.050000    576.000000
  0.450000 -0.350000  0.050000    576.000000
  0.350000 -0.250000  0.150000    576.000000
  0.050000  0.050000  0.650000    288.000000
 -0.050000  0.150000  0.750000    576.000000
  0.850000 -0.750000 -0.150000    576.000000
  0.750000 -0.650000 -0.050000    576.000000
  0.650000 -0.550000  0.050000    576.000000
  0.550000 -0.450000  0.150000    576.000000
  0.450000 -0.350000  0.250000    576.000000
  0.050000  0.050000  0.850000    288.000000
  0.950000 -0.850000 -0.050000    576.000000
  0.850000 -0.750000  0.050000    576.000000
  0.750000 -0.650000  0.150000    576.000000
  0.650000 -0.550000  0.250000    576.000000
  0.550000 -0.450000  0.350000    576.000000
  0.050000  0.050000 -0.950000    288.000000
 -0.050000  0.150000 -0.850000    576.000000
 -0.150000  0.250000 -0.750000    576.000000
 -0.250000  0.350000 -0.650000    576.000000
  0.050000  0.050000 -0.750000    288.000000
 -0.050000  0.150000 -0.650000    576.000000
 -0.150000  0.250000 -0.550000    576.000000
  0.050000  0.050000 -0.550000    288.000000
 -0.050000  0.150000 -0.450000    576.000000
  0.050000  0.050000 -0.350000    288.000000
  0.150000  0.150000  0.150000     96.000000
  0.050000  0.250000  0.250000    288.000000
 -0.050000  0.350000  0.350000    288.000000
 -0.150000  0.450000  0.450000    288.000000
  0.750000 -0.450000 -0.450000    288.000000
  0.650000 -0.350000 -0.350000    288.000000
  0.550000 -0.250000 -0.250000    288.000000
  0.450000 -0.150000 -0.150000    288.000000
  0.150000  0.150000  0.350000    288.000000
  0.050000  0.250000  0.450000    576.000000
 -0.050000  0.350000  0.550000    576.000000
  0.850000 -0.550000 -0.350000    576.000000
  0.750000 -0.450000 -0.250000    576.000000
  0.650000 -0.350000 -0.150000    576.000000
  0.550000 -0.250000 -0.050000    576.000000
  0.150000  0.150000  0.550000    288.000000
  0.050000  0.250000  0.650000    576.000000
  0.950000 -0.650000 -0.250000    576.000000
  0.850000 -0.550000 -0.150000    576.000000
  0.750000 -0.450000 -0.050000    576.000000
  0.650000 -0.350000  0.050000    576.000000
  0.150000  0.150000  0.750000    288.000000
  1.050000 -0.750000 -0.150000    576.000000
  0.950000 -0.650000 -0.050000    576.000000
  0.850000 -0.550000  0.050000    576.000000
  0.750000 -0.450000  0.150000    576.000000
  0.150000  0.150000 -1.050000    288.000000
  0.050000  0.250000 -0.950000    576.000000
 -0.050000  0.350000 -0.850000    576.000000
  0.150000  0.150000 -0.850000    288.000000
  0.050000  0.250000 -0.750000    576.000000
  0.150000  0.150000 -0.650000    288.000000
  0.250000  0.250000  0.250000     96.000000
  0.150000  0.350000  0.350000    288.000000
  0.050000  0.450000  0.450000    288.000000
  0.950000 -0.450000 -0.450000    288.000000
  0.850000 -0.350000 -0.350000    288.000000
  0.750000 -0.250000 -0.250000    288.000000
  0.250000  0.250000  0.450000    288.000000
  0.150000  0.350000  0.550000    576.000000
  1.050000 -0.550000 -0.350000    576.000000
  0.950000 -0.450000 -0.250000    576.000000
  0.850000 -0.350000 -0.150000    576.000000
  0.250000  0.250000  0.650000    288.000000
  1.150000 -0.650000 -0.250000    576.000000
  1.050000 -0.550000 -0.150000    576.000000
  0.950000 -0.450000 -0.050000    576.000000
  0.250000  0.250000 -1.150000    288.000000
  0.150000  0.350000 -1.050000    576.000000
  0.250000  0.250000 -0.950000    288.000000
  0.350000  0.350000  0.350000     96.000000
  0.250000  0.450000  0.450000    288.000000
  1.150000 -0.450000 -0.450000    288.000000
  1.050000 -0.350000 -0.350000    288.000000
  0.350000  0.350000  0.550000    288.000000
  1.250000 -0.550000 -0.350000    576.000000
  1.150000 -0.450000 -0.250000    576.000000
  0.350000  0.350000 -1.250000    288.000000
  0.450000  0.450000  0.450000     96.000000
  1.350000 -0.450000 -0.450000    288.000000
 


--------------------------------------------------------------------------------------------------------




 Dimension of arrays:
   k-points           NKPTS =    110   k-points in BZ     NKDIM =    110   number of bands    NBANDS=     12
   number of dos      NEDOS =    301   number of ions     NIONS =      1
   non local maximal  LDIM  =      6   non local SUM 2l+1 LMDIM =     18
   total plane-waves  NPLWV =   1000
   max r-space proj   IRMAX =      1   max aug-charges    IRDMAX=   4021
   dimension x,y,z NGX =    10 NGY =   10 NGZ =   10
   dimension x,y,z NGXF=    20 NGYF=   20 NGZF=   20
   support grid    NGXF=    20 NGYF=   20 NGZF=   20
   ions per type =               1
   NGX,Y,Z   is equivalent  to a cutoff of   5.88,  5.88,  5.88 a.u.
   NGXF,Y,Z  is equivalent  to a cutoff of  11.76, 11.76, 11.76 a.u.

 SYSTEM =  fcc Au                                  
 POSCAR =  FCC Au Bulk                             

 Startparameter for this run:
   NWRITE =      2    write-flag & timer
   PREC   = normal    normal or accurate (medium, high low for compatibility)
   ISTART =      0    job   : 0-new  1-cont  2-samecut
   ICHARG =      2    charge: 1-file 2-atom 10-const
   ISPIN  =      1    spin polarized calculation?
   LNONCOLLINEAR =      F non collinear calculations
   LSORBIT =      F    spin-orbit coupling
   INIWAV =      1    electr: 0-lowe 1-rand  2-diag
   LASPH  =      F    aspherical Exc in radial PAW
   METAGGA=      F    non-selfconsistent MetaGGA calc.

 Electronic Relaxation 1
   ENCUT  =  229.9 eV  16.89 Ry    4.11 a.u.   3.50  3.50  3.50*2*pi/ulx,y,z
   ENINI  =  229.9     initial cutoff
   ENAUG  =  356.7 eV  augmentation charge cutoff
   NELM   =     60;   NELMIN=  2; NELMDL= -5     # of ELM steps 
   EDIFF  = 0.1E-03   stopping-criterion for ELM
   LREAL  =      F    real-space projection
   NLSPLINE    = F    spline interpolate recip. space projectors
   LCOMPAT=      F    compatible to vasp.4.4
   GGA_COMPAT  = T    GGA compatible to vasp.4.4-vasp.4.6
   LMAXPAW     = -100 max onsite density
   LMAXMIX     =    2 max onsite mixed and CHGCAR
   VOSKOWN=      0    Vosko Wilk Nusair interpolation
   ROPT   =    0.00000
 Ionic relaxation
   EDIFFG = 0.1E-02   stopping-criterion for IOM
   NSW    =      0    number of steps for IOM
   NBLOCK =      1;   KBLOCK =      1    inner block; outer block 
   IBRION =     -1    ionic relax: 0-MD 1-quasi-New 2-CG
   NFREE  =      0    steps in history (QN), initial steepest desc. (CG)
   ISIF   =      2    stress and relaxation
   IWAVPR =     10    prediction:  0-non 1-charg 2-wave 3-comb
   ISYM   =      2    0-nonsym 1-usesym 2-fastsym
   LCORR  =      T    Harris-Foulkes like correction to forces

   POTIM  = 0.5000    time-step for ionic-motion
   TEIN   =    0.0    initial temperature
   TEBEG  =    0.0;   TEEND  =   0.0 temperature during run
   SMASS  =  -3.00    Nose mass-parameter (am)
   estimated Nose-frequenzy (Omega)   =  0.10E-29 period in steps =****** mass=  -0.183E-27a.u.
   SCALEE = 1.0000    scale energy and forces
   NPACO  =    256;   APACO  = 16.0  distance and # of slots for P.C.
   PSTRESS=    0.0 pullay stress

  Mass of Ions in am
   POMASS = 196.97
  Ionic Valenz
   ZVAL   =  11.00
  Atomic Wigner-Seitz radii
   RWIGS  =   1.50
  virtual crystal weights 
   VCA    =   1.00
   NELECT =      11.0000    total number of electrons
   NUPDOWN=      -1.0000    fix difference up-down

 DOS related values:
   EMIN   =  10.00;   EMAX   =-10.00  energy-range for DOS
   EFERMI =   0.00
   ISMEAR =     1;   SIGMA  =   0.20  broadening in eV -4-tet -1-fermi 0-gaus

 Electronic relaxation 2 (details)
   IALGO  =     38    algorithm
   LDIAG  =      T    sub-space diagonalisation (order eigenvalues)
   LSUBROT=      F    optimize rotation matrix (better conditioning)
   TURBO    =      0    0=normal 1=particle mesh
   IRESTART =      0    0=no restart 2=restart with 2 vectors
   NREBOOT  =      0    no. of reboots
   NMIN     =      0    reboot dimension
   EREF     =   0.00    reference energy to select bands
   IMIX   =      4    mixing-type and parameters
     AMIX     =   0.40;   BMIX     =  1.00
     AMIX_MAG =   1.60;   BMIX_MAG =  1.00
     AMIN     =   0.10
     WC   =   100.;   INIMIX=   1;  MIXPRE=   1;  MAXMIX= -45

 Intra band minimization:
   WEIMIN = 0.0000     energy-eigenvalue tresh-hold
   EBREAK =  0.21E-05  absolut break condition
   DEPER  =   0.30     relativ break condition  

   TIME   =   0.40     timestep for ELM

  volume/ion in A,a.u.               =      16.00       107.97
  Fermi-wavevector in a.u.,A,eV,Ry     =   1.444882  2.730431 28.404667  2.087684
  Thomas-Fermi vector in A             =   2.563127
 
 Write flags
   LWAVE        =      T    write WAVECAR
   LDOWNSAMPLE  =      F    k-point downsampling of WAVECAR
   LCHARG       =      T    write CHGCAR
   LVTOT        =      F    write LOCPOT, total local potential
   LVHAR        =      F    write LOCPOT, Hartree potential only
   LELF         =      F    write electronic localiz. function (ELF)
   LORBIT       =      0    0 simple, 1 ext, 2 COOP (PROOUT), +10 PAW based schemes


 Dipole corrections
   LMONO  =      F    monopole corrections only (constant potential shift)
   LDIPOL =      F    correct potential (dipole corrections)
   IDIPOL =      0    1-x, 2-y, 3-z, 4-all directions 
   EPSILON=  1.0000000 bulk dielectric constant

 Exchange correlation treatment:
   GGA     =    --    GGA type
   LEXCH   =     2    internal setting for exchange type
   VOSKOWN=      0    Vosko Wilk Nusair interpolation
   LHFCALC =     F    Hartree Fock is set to
   LHFONE  =     F    Hartree Fock one center treatment
   AEXX    =    0.0000 exact exchange contribution

 Linear response parameters
   LEPSILON=     F    determine dielectric tensor
   LRPA    =     F    only Hartree local field effects (RPA)
   LNABLA  =     F    use nabla operator in PAW spheres
   LVEL    =     F    velocity operator in full k-point grid
   LINTERFAST=   F  fast interpolation
   KINTER  =     0    interpolate to denser k-point grid
   CSHIFT  =0.1000    complex shift for real part using Kramers Kronig
   OMEGAMAX=  -1.0    maximum frequency
   DEG_THRESHOLD= 0.2000000E-02 threshold for treating states as degnerate
   RTIME   =   -0.100 relaxation time in fs
  (WPLASMAI=    0.000 imaginary part of plasma frequency in eV, 0.658/RTIME)
   DFIELD  = 0.0000000 0.0000000 0.0000000 field for delta impulse in time
 
 Orbital magnetization related:
   ORBITALMAG=     F  switch on orbital magnetization
   LCHIMAG   =     F  perturbation theory with respect to B field
   DQ        =  0.001000  dq finite difference perturbation B field
   LLRAUG    =     F  two centre corrections for induced B field



--------------------------------------------------------------------------------------------------------


 Static calculation
 charge density and potential will be updated during run
 non-spin polarized calculation
 Variant of blocked Davidson
 Davidson routine will perform the subspace rotation
 perform sub-space diagonalisation
    after iterative eigenvector-optimisation
 modified Broyden-mixing scheme, WC =      100.0
 initial mixing is a Kerker type mixing with AMIX =  0.4000 and BMIX =      1.0000
 Hartree-type preconditioning will be used
 using additional bands            6
 reciprocal scheme for non local part
 use partial core corrections
 calculate Harris-corrections to forces 
   (improved forces if not selfconsistent)
 use of overlap-Matrix (Vanderbilt PP)
 Methfessel and Paxton  Order N= 1 SIGMA  =   0.20


--------------------------------------------------------------------------------------------------------


  energy-cutoff  :      229.87
  volume of cell :       16.00
      direct lattice vectors                 reciprocal lattice vectors
     0.000000000  2.000000000  2.000000000    -0.250000000  0.250000000  0.250000000
     2.000000000  0.000000000  2.000000000     0.250000000 -0.250000000  0.250000000
     2.000000000  2.000000000  0.000000000     0.250000000  0.250000000 -0.250000000

  length of vectors
     2.828427125  2.828427125  2.828427125     0.433012702  0.433012702  0.433012702


 
 k-points in units of 2pi/SCALE and weight: 10x10x10                                
   0.05000000  0.05000000  0.05000000       0.002
  -0.05000000  0.15000000  0.15000000       0.006
  -0.15000000  0.25000000  0.25000000       0.006
  -0.25000000  0.35000000  0.35000000       0.006
  -0.35000000  0.45000000  0.45000000       0.006
   0.55000000 -0.45000000 -0.45000000       0.006
   0.45000000 -0.35000000 -0.35000000       0.006
   0.35000000 -0.25000000 -0.25000000       0.006
   0.25000000 -0.15000000 -0.15000000       0.006
   0.15000000 -0.05000000 -0.05000000       0.006
   0.05000000  0.05000000  0.25000000       0.006
  -0.05000000  0.15000000  0.35000000       0.012
  -0.15000000  0.25000000  0.45000000       0.012
  -0.25000000  0.35000000  0.55000000       0.012
   0.65000000 -0.55000000 -0.35000000       0.012
   0.55000000 -0.45000000 -0.25000000       0.012
   0.45000000 -0.35000000 -0.15000000       0.012
   0.35000000 -0.25000000 -0.05000000       0.012
   0.25000000 -0.15000000  0.05000000       0.012
   0.05000000  0.05000000  0.45000000       0.006
  -0.05000000  0.15000000  0.55000000       0.012
  -0.15000000  0.25000000  0.65000000       0.012
   0.75000000 -0.65000000 -0.25000000       0.012
   0.65000000 -0.55000000 -0.15000000       0.012
   0.55000000 -0.45000000 -0.05000000       0.012
   0.45000000 -0.35000000  0.05000000       0.012
   0.35000000 -0.25000000  0.15000000       0.012
   0.05000000  0.05000000  0.65000000       0.006
  -0.05000000  0.15000000  0.75000000       0.012
   0.85000000 -0.75000000 -0.15000000       0.012
   0.75000000 -0.65000000 -0.05000000       0.012
   0.65000000 -0.55000000  0.05000000       0.012
   0.55000000 -0.45000000  0.15000000       0.012
   0.45000000 -0.35000000  0.25000000       0.012
   0.05000000  0.05000000  0.85000000       0.006
   0.95000000 -0.85000000 -0.05000000       0.012
   0.85000000 -0.75000000  0.05000000       0.012
   0.75000000 -0.65000000  0.15000000       0.012
   0.65000000 -0.55000000  0.25000000       0.012
   0.55000000 -0.45000000  0.35000000       0.012
   0.05000000  0.05000000 -0.95000000       0.006
  -0.05000000  0.15000000 -0.85000000       0.012
  -0.15000000  0.25000000 -0.75000000       0.012
  -0.25000000  0.35000000 -0.65000000       0.012
   0.05000000  0.05000000 -0.75000000       0.006
  -0.05000000  0.15000000 -0.65000000       0.012
  -0.15000000  0.25000000 -0.55000000       0.012
   0.05000000  0.05000000 -0.55000000       0.006
  -0.05000000  0.15000000 -0.45000000       0.012
   0.05000000  0.05000000 -0.35000000       0.006
   0.15000000  0.15000000  0.15000000       0.002
   0.05000000  0.25000000  0.25000000       0.006
  -0.05000000  0.35000000  0.35000000       0.006
  -0.15000000  0.45000000  0.45000000       0.006
   0.75000000 -0.45000000 -0.45000000       0.006
   0.65000000 -0.35000000 -0.35000000       0.006
   0.55000000 -0.25000000 -0.25000000       0.006
   0.45000000 -0.15000000 -0.15000000       0.006
   0.15000000  0.15000000  0.35000000       0.006
   0.05000000  0.25000000  0.45000000       0.012
  -0.05000000  0.35000000  0.55000000       0.012
   0.85000000 -0.55000000 -0.35000000       0.012
   0.75000000 -0.45000000 -0.25000000       0.012
   0.65000000 -0.35000000 -0.15000000       0.012
   0.55000000 -0.25000000 -0.05000000       0.012
   0.15000000  0.15000000  0.55000000       0.006
   0.05000000  0.25000000  0.65000000       0.012
   0.95000000 -0.65000000 -0.25000000       0.012
   0.85000000 -0.55000000 -0.15000000       0.012
   0.75000000 -0.45000000 -0.05000000       0.012
   0.65000000 -0.35000000  0.05000000       0.012
   0.15000000  0.15000000  0.75000000       0.006
   1.05000000 -0.75000000 -0.15000000       0.012
   0.95000000 -0.65000000 -0.05000000       0.012
   0.85000000 -0.55000000  0.05000000       0.012
   0.75000000 -0.45000000  0.15000000       0.012
   0.15000000  0.15000000 -1.05000000       0.006
   0.05000000  0.25000000 -0.95000000       0.012
  -0.05000000  0.35000000 -0.85000000       0.012
   0.15000000  0.15000000 -0.85000000       0.006
   0.05000000  0.25000000 -0.75000000       0.012
   0.15000000  0.15000000 -0.65000000       0.006
   0.25000000  0.25000000  0.25000000       0.002
   0.15000000  0.35000000  0.35000000       0.006
   0.05000000  0.45000000  0.45000000       0.006
   0.95000000 -0.45000000 -0.45000000       0.006
   0.85000000 -0.35000000 -0.35000000       0.006
   0.75000000 -0.25000000 -0.25000000       0.006
   0.25000000  0.25000000  0.45000000       0.006
   0.15000000  0.35000000  0.55000000       0.012
   1.05000000 -0.55000000 -0.35000000       0.012
   0.95000000 -0.45000000 -0.25000000       0.012
   0.85000000 -0.35000000 -0.15000000       0.012
   0.25000000  0.25000000  0.65000000       0.006
   1.15000000 -0.65000000 -0.25000000       0.012
   1.05000000 -0.55000000 -0.15000000       0.012
   0.95000000 -0.45000000 -0.05000000       0.012
   0.25000000  0.25000000 -1.15000000       0.006
   0.15000000  0.35000000 -1.05000000       0.012
   0.25000000  0.25000000 -0.95000000       0.006
   0.35000000  0.35000000  0.35000000       0.002
   0.25000000  0.45000000  0.45000000       0.006
   1.15000000 -0.45000000 -0.45000000       0.006
   1.05000000 -0.35000000 -0.35000000       0.006
   0.35000000  0.35000000  0.55000000       0.006
   1.25000000 -0.55000000 -0.35000000       0.012
   1.15000000 -0.45000000 -0.25000000       0.012
   0.35000000  0.35000000 -1.25000000       0.006
   0.45000000  0.45000000  0.45000000       0.002
   1.35000000 -0.45000000 -0.45000000       0.006
 
 k-points in reciprocal lattice and weights: 10x10x10                                
   0.05000000  0.05000000  0.05000000       0.002
   0.15000000  0.05000000  0.05000000       0.006
   0.25000000  0.05000000  0.05000000       0.006
   0.35000000  0.05000000  0.05000000       0.006
   0.45000000  0.05000000  0.05000000       0.006
  -0.45000000  0.05000000  0.05000000       0.006
  -0.35000000  0.05000000  0.05000000       0.006
  -0.25000000  0.05000000  0.05000000       0.006
  -0.15000000  0.05000000  0.05000000       0.006
  -0.05000000  0.05000000  0.05000000       0.006
   0.15000000  0.15000000  0.05000000       0.006
   0.25000000  0.15000000  0.05000000       0.012
   0.35000000  0.15000000  0.05000000       0.012
   0.45000000  0.15000000  0.05000000       0.012
  -0.45000000  0.15000000  0.05000000       0.012
  -0.35000000  0.15000000  0.05000000       0.012
  -0.25000000  0.15000000  0.05000000       0.012
  -0.15000000  0.15000000  0.05000000       0.012
  -0.05000000  0.15000000  0.05000000       0.012
   0.25000000  0.25000000  0.05000000       0.006
   0.35000000  0.25000000  0.05000000       0.012
   0.45000000  0.25000000  0.05000000       0.012
  -0.45000000  0.25000000  0.05000000       0.012
  -0.35000000  0.25000000  0.05000000       0.012
  -0.25000000  0.25000000  0.05000000       0.012
  -0.15000000  0.25000000  0.05000000       0.012
  -0.05000000  0.25000000  0.05000000       0.012
   0.35000000  0.35000000  0.05000000       0.006
   0.45000000  0.35000000  0.05000000       0.012
  -0.45000000  0.35000000  0.05000000       0.012
  -0.35000000  0.35000000  0.05000000       0.012
  -0.25000000  0.35000000  0.05000000       0.012
  -0.15000000  0.35000000  0.05000000       0.012
  -0.05000000  0.35000000  0.05000000       0.012
   0.45000000  0.45000000  0.05000000       0.006
  -0.45000000  0.45000000  0.05000000       0.012
  -0.35000000  0.45000000  0.05000000       0.012
  -0.25000000  0.45000000  0.05000000       0.012
  -0.15000000  0.45000000  0.05000000       0.012
  -0.05000000  0.45000000  0.05000000       0.012
  -0.45000000 -0.45000000  0.05000000       0.006
  -0.35000000 -0.45000000  0.05000000       0.012
  -0.25000000 -0.45000000  0.05000000       0.012
  -0.15000000 -0.45000000  0.05000000       0.012
  -0.35000000 -0.35000000  0.05000000       0.006
  -0.25000000 -0.35000000  0.05000000       0.012
  -0.15000000 -0.35000000  0.05000000       0.012
  -0.25000000 -0.25000000  0.05000000       0.006
  -0.15000000 -0.25000000  0.05000000       0.012
  -0.15000000 -0.15000000  0.05000000       0.006
   0.15000000  0.15000000  0.15000000       0.002
   0.25000000  0.15000000  0.15000000       0.006
   0.35000000  0.15000000  0.15000000       0.006
   0.45000000  0.15000000  0.15000000       0.006
  -0.45000000  0.15000000  0.15000000       0.006
  -0.35000000  0.15000000  0.15000000       0.006
  -0.25000000  0.15000000  0.15000000       0.006
  -0.15000000  0.15000000  0.15000000       0.006
   0.25000000  0.25000000  0.15000000       0.006
   0.35000000  0.25000000  0.15000000       0.012
   0.45000000  0.25000000  0.15000000       0.012
  -0.45000000  0.25000000  0.15000000       0.012
  -0.35000000  0.25000000  0.15000000       0.012
  -0.25000000  0.25000000  0.15000000       0.012
  -0.15000000  0.25000000  0.15000000       0.012
   0.35000000  0.35000000  0.15000000       0.006
   0.45000000  0.35000000  0.15000000       0.012
  -0.45000000  0.35000000  0.15000000       0.012
  -0.35000000  0.35000000  0.15000000       0.012
  -0.25000000  0.35000000  0.15000000       0.012
  -0.15000000  0.35000000  0.15000000       0.012
   0.45000000  0.45000000  0.15000000       0.006
  -0.45000000  0.45000000  0.15000000       0.012
  -0.35000000  0.45000000  0.15000000       0.012
  -0.25000000  0.45000000  0.15000000       0.012
  -0.15000000  0.45000000  0.15000000       0.012
  -0.45000000 -0.45000000  0.15000000       0.006
  -0.35000000 -0.45000000  0.15000000       0.012
  -0.25000000 -0.45000000  0.15000000       0.012
  -0.35000000 -0.35000000  0.15000000       0.006
  -0.25000000 -0.35000000  0.15000000       0.012
  -0.25000000 -0.25000000  0.15000000       0.006
   0.25000000  0.25000000  0.25000000       0.002
   0.35000000  0.25000000  0.25000000       0.006
   0.45000000  0.25000000  0.25000000       0.006
  -0.45000000  0.25000000  0.25000000       0.006
  -0.35000000  0.25000000  0.25000000       0.006
  -0.25000000  0.25000000  0.25000000       0.006
   0.35000000  0.35000000  0.25000000       0.006
   0.45000000  0.35000000  0.25000000       0.012
  -0.45000000  0.35000000  0.25000000       0.012
  -0.35000000  0.35000000  0.25000000       0.012
  -0.25000000  0.35000000  0.25000000       0.012
   0.45000000  0.45000000  0.25000000       0.006
  -0.45000000  0.45000000  0.25000000       0.012
  -0.35000000  0.45000000  0.25000000       0.012
  -0.25000000  0.45000000  0.25000000       0.012
  -0.45000000 -0.45000000  0.25000000       0.006
  -0.35000000 -0.45000000  0.25000000       0.012
  -0.35000000 -0.35000000  0.25000000       0.006
   0.35000000  0.35000000  0.35000000       0.002
   0.45000000  0.35000000  0.35000000       0.006
  -0.45000000  0.35000000  0.35000000       0.006
  -0.35000000  0.35000000  0.35000000       0.006
   0.45000000  0.45000000  0.35000000       0.006
  -0.45000000  0.45000000  0.35000000       0.012
  -0.35000000  0.45000000  0.35000000       0.012
  -0.45000000 -0.45000000  0.35000000       0.006
   0.45000000  0.45000000  0.45000000       0.002
  -0.45000000  0.45000000  0.45000000       0.006
 
 position of ions in fractional coordinates (direct lattice) 
   0.00000000  0.00000000  0.00000000
 
 position of ions in cartesian coordinates  (Angst):
   0.00000000  0.00000000  0.00000000
 


--------------------------------------------------------------------------------------------------------


 k-point  1 :   0.0500 0.0500 0.0500  plane waves:     134
 k-point  2 :   0.1500 0.0500 0.0500  plane waves:     129
 k-point  3 :   0.2500 0.0500 0.0500  plane waves:     130
 k-point  4 :   0.3500 0.0500 0.0500  plane waves:     131
 k-point  5 :   0.4500 0.0500 0.0500  plane waves:     127
 k-point  6 :  -0.4500 0.0500 0.0500  plane waves:     127
 k-point  7 :  -0.3500 0.0500 0.0500  plane waves:     127
 k-point  8 :  -0.2500 0.0500 0.0500  plane waves:     131
 k-point  9 :  -0.1500 0.0500 0.0500  plane waves:     127
 k-point 10 :  -0.0500 0.0500 0.0500  plane waves:     129
 k-point 11 :   0.1500 0.1500 0.0500  plane waves:     126
 k-point 12 :   0.2500 0.1500 0.0500  plane waves:     132
 k-point 13 :   0.3500 0.1500 0.0500  plane waves:     132
 k-point 14 :   0.4500 0.1500 0.0500  plane waves:     128
 k-point 15 :  -0.4500 0.1500 0.0500  plane waves:     126
 k-point 16 :  -0.3500 0.1500 0.0500  plane waves:     126
 k-point 17 :  -0.2500 0.1500 0.0500  plane waves:     132
 k-point 18 :  -0.1500 0.1500 0.0500  plane waves:     134
 k-point 19 :  -0.0500 0.1500 0.0500  plane waves:     130
 k-point 20 :   0.2500 0.2500 0.0500  plane waves:     130
 k-point 21 :   0.3500 0.2500 0.0500  plane waves:     128
 k-point 22 :   0.4500 0.2500 0.0500  plane waves:     126
 k-point 23 :  -0.4500 0.2500 0.0500  plane waves:     125
 k-point 24 :  -0.3500 0.2500 0.0500  plane waves:     126
 k-point 25 :  -0.2500 0.2500 0.0500  plane waves:     128
 k-point 26 :  -0.1500 0.2500 0.0500  plane waves:     132
 k-point 27 :  -0.0500 0.2500 0.0500  plane waves:     132
 k-point 28 :   0.3500 0.3500 0.0500  plane waves:     129
 k-point 29 :   0.4500 0.3500 0.0500  plane waves:     125
 k-point 30 :  -0.4500 0.3500 0.0500  plane waves:     125
 k-point 31 :  -0.3500 0.3500 0.0500  plane waves:     123
 k-point 32 :  -0.2500 0.3500 0.0500  plane waves:     125
 k-point 33 :  -0.1500 0.3500 0.0500  plane waves:     129
 k-point 34 :  -0.0500 0.3500 0.0500  plane waves:     132
 k-point 35 :   0.4500 0.4500 0.0500  plane waves:     121
 k-point 36 :  -0.4500 0.4500 0.0500  plane waves:     120
 k-point 37 :  -0.3500 0.4500 0.0500  plane waves:     124
 k-point 38 :  -0.2500 0.4500 0.0500  plane waves:     124
 k-point 39 :  -0.1500 0.4500 0.0500  plane waves:     126
 k-point 40 :  -0.0500 0.4500 0.0500  plane waves:     126
 k-point 41 :  -0.4500-0.4500 0.0500  plane waves:     118
 k-point 42 :  -0.3500-0.4500 0.0500  plane waves:     123
 k-point 43 :  -0.2500-0.4500 0.0500  plane waves:     125
 k-point 44 :  -0.1500-0.4500 0.0500  plane waves:     126
 k-point 45 :  -0.3500-0.3500 0.0500  plane waves:     127
 k-point 46 :  -0.2500-0.3500 0.0500  plane waves:     128
 k-point 47 :  -0.1500-0.3500 0.0500  plane waves:     131
 k-point 48 :  -0.2500-0.2500 0.0500  plane waves:     128
 k-point 49 :  -0.1500-0.2500 0.0500  plane waves:     131
 k-point 50 :  -0.1500-0.1500 0.0500  plane waves:     130
 k-point 51 :   0.1500 0.1500 0.1500  plane waves:     129
 k-point 52 :   0.2500 0.1500 0.1500  plane waves:     131
 k-point 53 :   0.3500 0.1500 0.1500  plane waves:     133
 k-point 54 :   0.4500 0.1500 0.1500  plane waves:     130
 k-point 55 :  -0.4500 0.1500 0.1500  plane waves:     127
 k-point 56 :  -0.3500 0.1500 0.1500  plane waves:     123
 k-point 57 :  -0.2500 0.1500 0.1500  plane waves:     130
 k-point 58 :  -0.1500 0.1500 0.1500  plane waves:     132
 k-point 59 :   0.2500 0.2500 0.1500  plane waves:     130
 k-point 60 :   0.3500 0.2500 0.1500  plane waves:     133
 k-point 61 :   0.4500 0.2500 0.1500  plane waves:     127
 k-point 62 :  -0.4500 0.2500 0.1500  plane waves:     127
 k-point 63 :  -0.3500 0.2500 0.1500  plane waves:     123
 k-point 64 :  -0.2500 0.2500 0.1500  plane waves:     126
 k-point 65 :  -0.1500 0.2500 0.1500  plane waves:     130
 k-point 66 :   0.3500 0.3500 0.1500  plane waves:     132
 k-point 67 :   0.4500 0.3500 0.1500  plane waves:     126
 k-point 68 :  -0.4500 0.3500 0.1500  plane waves:     124
 k-point 69 :  -0.3500 0.3500 0.1500  plane waves:     121
 k-point 70 :  -0.2500 0.3500 0.1500  plane waves:     124
 k-point 71 :  -0.1500 0.3500 0.1500  plane waves:     126
 k-point 72 :   0.4500 0.4500 0.1500  plane waves:     124
 k-point 73 :  -0.4500 0.4500 0.1500  plane waves:     124
 k-point 74 :  -0.3500 0.4500 0.1500  plane waves:     123
 k-point 75 :  -0.2500 0.4500 0.1500  plane waves:     124
 k-point 76 :  -0.1500 0.4500 0.1500  plane waves:     122
 k-point 77 :  -0.4500-0.4500 0.1500  plane waves:     124
 k-point 78 :  -0.3500-0.4500 0.1500  plane waves:     123
 k-point 79 :  -0.2500-0.4500 0.1500  plane waves:     123
 k-point 80 :  -0.3500-0.3500 0.1500  plane waves:     124
 k-point 81 :  -0.2500-0.3500 0.1500  plane waves:     126
 k-point 82 :  -0.2500-0.2500 0.1500  plane waves:     128
 k-point 83 :   0.2500 0.2500 0.2500  plane waves:     132
 k-point 84 :   0.3500 0.2500 0.2500  plane waves:     132
 k-point 85 :   0.4500 0.2500 0.2500  plane waves:     131
 k-point 86 :  -0.4500 0.2500 0.2500  plane waves:     128
 k-point 87 :  -0.3500 0.2500 0.2500  plane waves:     125
 k-point 88 :  -0.2500 0.2500 0.2500  plane waves:     124
 k-point 89 :   0.3500 0.3500 0.2500  plane waves:     132
 k-point 90 :   0.4500 0.3500 0.2500  plane waves:     130
 k-point 91 :  -0.4500 0.3500 0.2500  plane waves:     128
 k-point 92 :  -0.3500 0.3500 0.2500  plane waves:     123
 k-point 93 :  -0.2500 0.3500 0.2500  plane waves:     123
 k-point 94 :   0.4500 0.4500 0.2500  plane waves:     128
 k-point 95 :  -0.4500 0.4500 0.2500  plane waves:     127
 k-point 96 :  -0.3500 0.4500 0.2500  plane waves:     120
 k-point 97 :  -0.2500 0.4500 0.2500  plane waves:     117
 k-point 98 :  -0.4500-0.4500 0.2500  plane waves:     127
 k-point 99 :  -0.3500-0.4500 0.2500  plane waves:     124
 k-point ** :  -0.3500-0.3500 0.2500  plane waves:     124
 k-point ** :   0.3500 0.3500 0.3500  plane waves:     132
 k-point ** :   0.4500 0.3500 0.3500  plane waves:     129
 k-point ** :  -0.4500 0.3500 0.3500  plane waves:     129
 k-point ** :  -0.3500 0.3500 0.3500  plane waves:     124
 k-point ** :   0.4500 0.4500 0.3500  plane waves:     129
 k-point ** :  -0.4500 0.4500 0.3500  plane waves:     124
 k-point ** :  -0.3500 0.4500 0.3500  plane waves:     123
 k-point ** :  -0.4500-0.4500 0.3500  plane waves:     125
 k-point ** :   0.4500 0.4500 0.4500  plane waves:     123
 k-point ** :  -0.4500 0.4500 0.4500  plane waves:     129

 maximum and minimum number of plane-waves per node :       134      117

 maximum number of plane-waves:       134
 maximum index in each direction: 
   IXMAX=    3   IYMAX=    3   IZMAX=    3
   IXMIN=   -3   IYMIN=   -3   IZMIN=   -3


 serial   3D FFT for wavefunctions
 parallel 3D FFT for charge:
    minimum data exchange during FFTs selected (reduces bandwidth)


 total amount of memory used by VASP MPI-rank0    33328. kBytes
=======================================================================

   base      :      30000. kBytes
   nonl-proj :       2156. kBytes
   fftplans  :        142. kBytes
   grid      :        192. kBytes
   one-center:         15. kBytes
   wavefun   :        823. kBytes
 
     INWAV:  cpu time    0.0001: real time    0.0002
 Broyden mixing: mesh for mixing (old mesh)
   NGX =  7   NGY =  7   NGZ =  7
  (NGX  = 20   NGY  = 20   NGZ  = 20)
  gives a total of    343 points

 initial charge density was supplied:
 charge density of overlapping atoms calculated
 number of electron      11.0000000 magnetization 
 keeping initial charge density in first step


--------------------------------------------------------------------------------------------------------


 Maximum index for augmentation-charges          943 (set IRDMAX)


--------------------------------------------------------------------------------------------------------


 First call to EWALD:  gamma=   0.703
 Maximum number of real-space cells 3x 3x 3
 Maximum number of reciprocal cells 3x 3x 3

    FEWALD:  cpu time    0.0013: real time    0.0013


--------------------------------------- Iteration      1(   1)  ---------------------------------------


    POTLOK:  cpu time    0.0014: real time    0.0024
    SETDIJ:  cpu time    0.0016: real time    0.0016
     EDDAV:  cpu time    0.2519: real time    0.2580
       DOS:  cpu time    0.0014: real time    0.0014
    --------------------------------------------
      LOOP:  cpu time    0.2564: real time    0.2635

 eigenvalue-minimisations  :  3220
 total energy-change (2. order) : 0.3052386E+02  (-0.3567695E+03)
 number of electron      11.0000000 magnetization 
 augmentation part       11.0000000 magnetization 

 Free energy of the ion-electron system (eV)
  ---------------------------------------------------
  alpha Z        PSCENC =       114.86745875
  Ewald energy   TEWEN  =      -998.56820046
  -Hartree energ DENC   =      -114.90329668
  -exchange      EXHF   =         0.00000000
  -V(xc)+E(xc)   XCENC  =        16.50910881
  PAW double counting   =       746.10209728     -725.46159323
  entropy T*S    EENTRO =         0.00058340
  eigenvalues    EBANDS =        62.58155468
  atomic energy  EATOM  =       929.39614979
  Solvation  Ediel_sol  =         0.00000000
  ---------------------------------------------------
  free energy    TOTEN  =        30.52386235 eV

  energy without entropy =       30.52327895  energy(sigma->0) =       30.52366788


--------------------------------------------------------------------------------------------------------




--------------------------------------- Iteration      1(   2)  ---------------------------------------


     EDDAV:  cpu time    0.2050: real time    0.2094
       DOS:  cpu time    0.0014: real time    0.0014
    --------------------------------------------
      LOOP:  cpu time    0.2064: real time    0.2108

 eigenvalue-minimisations  :  3036
 total energy-change (2. order) :-0.3489230E+02  (-0.3259640E+02)
 number of electron      11.0000000 magnetization 
 augmentation part       11.0000000 magnetization 

 Free energy of the ion-electron system (eV)
  ---------------------------------------------------
  alpha Z        PSCENC =       114.86745875
  Ewald energy   TEWEN  =      -998.56820046
  -Hartree energ DENC   =      -114.90329668
  -exchange      EXHF   =         0.00000000
  -V(xc)+E(xc)   XCENC  =        16.50910881
  PAW double counting   =       746.10209728     -725.46159323
  entropy T*S    EENTRO =        -0.00077032
  eigenvalues    EBANDS =        27.69060622
  atomic energy  EATOM  =       929.39614979
  Solvation  Ediel_sol  =         0.00000000
  ---------------------------------------------------
  free energy    TOTEN  =        -4.36843984 eV

  energy without entropy =       -4.36766952  energy(sigma->0) =       -4.36818306


--------------------------------------------------------------------------------------------------------




--------------------------------------- Iteration      1(   3)  ---------------------------------------


     EDDAV:  cpu time    0.2342: real time    0.2396
       DOS:  cpu time    0.0015: real time    0.0015
    --------------------------------------------
      LOOP:  cpu time    0.2357: real time    0.2411

 eigenvalue-minimisations  :  3160
 total energy-change (2. order) :-0.3228559E+00  (-0.3227248E+00)
 number of electron      11.0000000 magnetization 
 augmentation part       11.0000000 magnetization 

 Free energy of the ion-electron system (eV)
  ---------------------------------------------------
  alpha Z        PSCENC =       114.86745875
  Ewald energy   TEWEN  =      -998.56820046
  -Hartree energ DENC   =      -114.90329668
  -exchange      EXHF   =         0.00000000
  -V(xc)+E(xc)   XCENC  =        16.50910881
  PAW double counting   =       746.10209728     -725.46159323
  entropy T*S    EENTRO =        -0.00072435
  eigenvalues    EBANDS =        27.36770438
  atomic energy  EATOM  =       929.39614979
  Solvation  Ediel_sol  =         0.00000000
  ---------------------------------------------------
  free energy    TOTEN  =        -4.69129571 eV

  energy without entropy =       -4.69057136  energy(sigma->0) =       -4.69105426


--------------------------------------------------------------------------------------------------------




--------------------------------------- Iteration      1(   4)  ---------------------------------------


     EDDAV:  cpu time    0.2165: real time    0.2214
       DOS:  cpu time    0.0014: real time    0.0014
    --------------------------------------------
      LOOP:  cpu time    0.2179: real time    0.2228

 eigenvalue-minimisations  :  3124
 total energy-change (2. order) :-0.8066400E-03  (-0.8066176E-03)
 number of electron      11.0000000 magnetization 
 augmentation part       11.0000000 magnetization 

 Free energy of the ion-electron system (eV)
  ---------------------------------------------------
  alpha Z        PSCENC =       114.86745875
  Ewald energy   TEWEN  =      -998.56820046
  -Hartree energ DENC   =      -114.90329668
  -exchange      EXHF   =         0.00000000
  -V(xc)+E(xc)   XCENC  =        16.50910881
  PAW double counting   =       746.10209728     -725.46159323
  entropy T*S    EENTRO =        -0.00072396
  eigenvalues    EBANDS =        27.36689734
  atomic energy  EATOM  =       929.39614979
  Solvation  Ediel_sol  =         0.00000000
  ---------------------------------------------------
  free energy    TOTEN  =        -4.69210235 eV

  energy without entropy =       -4.69137840  energy(sigma->0) =       -4.69186103


--------------------------------------------------------------------------------------------------------




--------------------------------------- Iteration      1(   5)  ---------------------------------------


     EDDAV:  cpu time    0.2256: real time    0.2319
       DOS:  cpu time    0.0016: real time    0.0015
    CHARGE:  cpu time    0.0031: real time    0.0033
    MIXING:  cpu time    0.0003: real time    0.0003
    --------------------------------------------
      LOOP:  cpu time    0.2307: real time    0.2371

 eigenvalue-minimisations  :  2928
 total energy-change (2. order) :-0.5224401E-05  (-0.5224887E-05)
 number of electron      11.0000052 magnetization 
 augmentation part        3.8187902 magnetization 

 Broyden mixing:
  rms(total) = 0.31880E+00    rms(broyden)= 0.31829E+00
  rms(prec ) = 0.13208E+01
  weight for this iteration     100.00

 Free energy of the ion-electron system (eV)
  ---------------------------------------------------
  alpha Z        PSCENC =       114.86745875
  Ewald energy   TEWEN  =      -998.56820046
  -Hartree energ DENC   =      -114.90329668
  -exchange      EXHF   =         0.00000000
  -V(xc)+E(xc)   XCENC  =        16.50910881
  PAW double counting   =       746.10209728     -725.46159323
  entropy T*S    EENTRO =        -0.00072395
  eigenvalues    EBANDS =        27.36689211
  atomic energy  EATOM  =       929.39614979
  Solvation  Ediel_sol  =         0.00000000
  ---------------------------------------------------
  free energy    TOTEN  =        -4.69210758 eV

  energy without entropy =       -4.69138362  energy(sigma->0) =       -4.69186626


--------------------------------------------------------------------------------------------------------




--------------------------------------- Iteration      1(   6)  ---------------------------------------


    POTLOK:  cpu time    0.0012: real time    0.0013
    SETDIJ:  cpu time    0.0012: real time    0.0012
     EDDAV:  cpu time    0.2335: real time    0.2390
       DOS:  cpu time    0.0016: real time    0.0016
    CHARGE:  cpu time    0.0030: real time    0.0030
    MIXING:  cpu time    0.0005: real time    0.0004
    --------------------------------------------
      LOOP:  cpu time    0.2409: real time    0.2465

 eigenvalue-minimisations  :  3108
 total energy-change (2. order) : 0.2850282E+00  (-0.7049427E-01)
 number of electron      11.0000054 magnetization 
 augmentation part        3.9518411 magnetization 

 Broyden mixing:
  rms(total) = 0.87205E-01    rms(broyden)= 0.87159E-01
  rms(prec ) = 0.35490E+00
  weight for this iteration     100.00

 eigenvalues of (default mixing * dielectric matrix)
  average eigenvalue GAMMA=   1.2908
  1.2908

 Free energy of the ion-electron system (eV)
  ---------------------------------------------------
  alpha Z        PSCENC =       114.86745875
  Ewald energy   TEWEN  =      -998.56820046
  -Hartree energ DENC   =      -107.22351767
  -exchange      EXHF   =         0.00000000
  -V(xc)+E(xc)   XCENC  =        16.11798201
  PAW double counting   =       745.24152844     -726.02127605
  entropy T*S    EENTRO =         0.00014469
  eigenvalues    EBANDS =        21.78265108
  atomic energy  EATOM  =       929.39614979
  Solvation  Ediel_sol  =         0.00000000
  ---------------------------------------------------
  free energy    TOTEN  =        -4.40707942 eV

  energy without entropy =       -4.40722411  energy(sigma->0) =       -4.40712765


--------------------------------------------------------------------------------------------------------




--------------------------------------- Iteration      1(   7)  ---------------------------------------


    POTLOK:  cpu time    0.0013: real time    0.0014
    SETDIJ:  cpu time    0.0012: real time    0.0012
     EDDAV:  cpu time    0.2371: real time    0.2430
       DOS:  cpu time    0.0016: real time    0.0016
    CHARGE:  cpu time    0.0035: real time    0.0035
    MIXING:  cpu time    0.0005: real time    0.0004
    --------------------------------------------
      LOOP:  cpu time    0.2451: real time    0.2512

 eigenvalue-minimisations  :  3160
 total energy-change (2. order) : 0.2826612E-01  (-0.5691808E-02)
 number of electron      11.0000054 magnetization 
 augmentation part        3.9870609 magnetization 

 Broyden mixing:
  rms(total) = 0.26539E-01    rms(broyden)= 0.26530E-01
  rms(prec ) = 0.64222E-01
  weight for this iteration     100.00

 eigenvalues of (default mixing * dielectric matrix)
  average eigenvalue GAMMA=   1.7978
  1.2303  2.3654

 Free energy of the ion-electron system (eV)
  ---------------------------------------------------
  alpha Z        PSCENC =       114.86745875
  Ewald energy   TEWEN  =      -998.56820046
  -Hartree energ DENC   =      -104.55085786
  -exchange      EXHF   =         0.00000000
  -V(xc)+E(xc)   XCENC  =        15.97904602
  PAW double counting   =       752.22504272     -733.97839813
  entropy T*S    EENTRO =         0.00055363
  eigenvalues    EBANDS =        20.25039225
  atomic energy  EATOM  =       929.39614979
  Solvation  Ediel_sol  =         0.00000000
  ---------------------------------------------------
  free energy    TOTEN  =        -4.37881329 eV

  energy without entropy =       -4.37936693  energy(sigma->0) =       -4.37899784


--------------------------------------------------------------------------------------------------------




--------------------------------------- Iteration      1(   8)  ---------------------------------------


    POTLOK:  cpu time    0.0014: real time    0.0017
    SETDIJ:  cpu time    0.0014: real time    0.0014
     EDDAV:  cpu time    0.2417: real time    0.2478
       DOS:  cpu time    0.0015: real time    0.0015
    CHARGE:  cpu time    0.0032: real time    0.0032
    MIXING:  cpu time    0.0005: real time    0.0004
    --------------------------------------------
      LOOP:  cpu time    0.2496: real time    0.2559

 eigenvalue-minimisations  :  2984
 total energy-change (2. order) : 0.5296668E-02  (-0.1849991E-03)
 number of electron      11.0000054 magnetization 
 augmentation part        3.9858856 magnetization 

 Broyden mixing:
  rms(total) = 0.95509E-03    rms(broyden)= 0.94711E-03
  rms(prec ) = 0.24927E-02
  weight for this iteration     100.00

 eigenvalues of (default mixing * dielectric matrix)
  average eigenvalue GAMMA=   1.6620
  1.2509  1.2944  2.4407

 Free energy of the ion-electron system (eV)
  ---------------------------------------------------
  alpha Z        PSCENC =       114.86745875
  Ewald energy   TEWEN  =      -998.56820046
  -Hartree energ DENC   =      -103.82219423
  -exchange      EXHF   =         0.00000000
  -V(xc)+E(xc)   XCENC  =        15.93751508
  PAW double counting   =       761.88803464     -744.36419100
  entropy T*S    EENTRO =         0.00058838
  eigenvalues    EBANDS =        20.29132242
  atomic energy  EATOM  =       929.39614979
  Solvation  Ediel_sol  =         0.00000000
  ---------------------------------------------------
  free energy    TOTEN  =        -4.37351663 eV

  energy without entropy =       -4.37410501  energy(sigma->0) =       -4.37371275


--------------------------------------------------------------------------------------------------------




--------------------------------------- Iteration      1(   9)  ---------------------------------------


    POTLOK:  cpu time    0.0014: real time    0.0016
    SETDIJ:  cpu time    0.0013: real time    0.0013
     EDDAV:  cpu time    0.1806: real time    0.1859
       DOS:  cpu time    0.0015: real time    0.0015
    --------------------------------------------
      LOOP:  cpu time    0.1849: real time    0.1903

 eigenvalue-minimisations  :  1944
 total energy-change (2. order) : 0.3808182E-05  (-0.9363945E-06)
 number of electron      11.0000054 magnetization 
 augmentation part        3.9858856 magnetization 

 Free energy of the ion-electron system (eV)
  ---------------------------------------------------
  alpha Z        PSCENC =       114.86745875
  Ewald energy   TEWEN  =      -998.56820046
  -Hartree energ DENC   =      -103.79969763
  -exchange      EXHF   =         0.00000000
  -V(xc)+E(xc)   XCENC  =        15.93621002
  PAW double counting   =       762.65456453     -745.14623288
  entropy T*S    EENTRO =         0.00059116
  eigenvalues    EBANDS =        20.28564391
  atomic energy  EATOM  =       929.39614979
  Solvation  Ediel_sol  =         0.00000000
  ---------------------------------------------------
  free energy    TOTEN  =        -4.37351282 eV

  energy without entropy =       -4.37410398  energy(sigma->0) =       -4.37370987


--------------------------------------------------------------------------------------------------------




 average (electrostatic) potential at core
  the test charge radii are     1.2098
  (the norm of the test charge is              1.0000)
       1 -45.1895
 
 
 
 E-fermi :   6.4312     XC(G=0): -13.3506     alpha+bet :-10.9613


 k-point     1 :       0.0500    0.0500    0.0500
  band No.  band energies     occupation 
      1      -4.1143      2.00000
      2       1.3110      2.00000
      3       1.3763      2.00000
      4       1.3763      2.00000
      5       3.0472      2.00000
      6       3.0472      2.00000
      7      21.8471      0.00000
      8      25.2737      0.00000
      9      26.0650      0.00000
     10      26.0650      0.00000
     11      31.0312      0.00000
     12      34.5393      0.00000

 k-point     2 :       0.1500    0.0500    0.0500
  band No.  band energies     occupation 
      1      -3.6337      2.00000
      2       1.1392      2.00000
      3       1.5295      2.00000
      4       1.5656      2.00000
      5       2.8822      2.00000
      6       3.1025      2.00000
      7      22.2926      0.00000
      8      23.2735      0.00000
      9      25.7753      0.00000
     10      27.0535      0.00000
     11      30.7015      0.00000
     12      33.4205      0.00000

 k-point     3 :       0.2500    0.0500    0.0500
  band No.  band energies     occupation 
      1      -2.6004      2.00000
      2       1.0034      2.00000
      3       1.6974      2.00000
      4       1.7224      2.00000
      5       2.8891      2.00000
      6       3.3388      2.00000
      7      19.4914      0.00000
      8      22.9361      0.00000
      9      26.1016      0.00000
     10      28.4763      0.00000
     11      28.5347      0.00000
     12      31.1611      0.00000

 k-point     4 :       0.3500    0.0500    0.0500
  band No.  band energies     occupation 
      1      -1.6959      2.00000
      2       1.4957      2.00000
      3       1.5937      2.00000
      4       1.7188      2.00000
      5       3.4306      2.00000
      6       3.9689      2.00000
      7      15.4278      0.00000
      8      22.1982      0.00000
      9      25.1668      0.00000
     10      27.4777      0.00000
     11      29.6809      0.00000
     12      30.9114      0.00000

 k-point     5 :       0.4500    0.0500    0.0500
  band No.  band energies     occupation 
      1      -1.4850      2.00000
      2       1.3290      2.00000
      3       1.4077      2.00000
      4       3.3286      2.00000
      5       4.0996      2.00000
      6       4.8689      2.00000
      7      11.5691     -0.00000
      8      21.3543      0.00000
      9      24.1456      0.00000
     10      25.2915      0.00000
     11      31.6819      0.00000
     12      32.0512      0.00000

 k-point     6 :      -0.4500    0.0500    0.0500
  band No.  band energies     occupation 
      1      -1.4848      2.00000
      2       1.2548      2.00000
      3       1.3628      2.00000
      4       3.8200      2.00000
      5       4.4219      2.00000
      6       5.6665      2.00000
      7       9.8987     -0.00000
      8      21.1230      0.00000
      9      24.1839      0.00000
     10      24.2968      0.00000
     11      32.2659      0.00000
     12      32.3532      0.00000

 k-point     7 :      -0.3500    0.0500    0.0500
  band No.  band energies     occupation 
      1      -1.5076      2.00000
      2       1.3625      2.00000
      3       1.4858      2.00000
      4       2.7184      2.00000
      5       4.1932      2.00000
      6       4.2899      2.00000
      7      12.7697      0.00000
      8      21.6036      0.00000
      9      24.6544      0.00000
     10      25.5266      0.00000
     11      31.6324      0.00000
     12      31.7341      0.00000

 k-point     8 :      -0.2500    0.0500    0.0500
  band No.  band energies     occupation 
      1      -1.9209      2.00000
      2       1.2709      2.00000
      3       1.6080      2.00000
      4       1.6781      2.00000
      5       3.3269      2.00000
      6       3.6301      2.00000
      7      16.7992      0.00000
      8      22.5887      0.00000
      9      25.7114      0.00000
     10      27.6020      0.00000
     11      29.3836      0.00000
     12      31.1824      0.00000

 k-point     9 :      -0.1500    0.0500    0.0500
  band No.  band energies     occupation 
      1      -2.9787      2.00000
      2       0.9937      2.00000
      3       1.6890      2.00000
      4       1.7034      2.00000
      5       2.8421      2.00000
      6       3.2038      2.00000
      7      20.7689      0.00000
      8      22.9926      0.00000
      9      26.0962      0.00000
     10      27.5538      0.00000
     11      29.3672      0.00000
     12      31.9443      0.00000

 k-point    10 :      -0.0500    0.0500    0.0500
  band No.  band energies     occupation 
      1      -3.8697      2.00000
      2       1.1900      2.00000
      3       1.4824      2.00000
      4       1.4885      2.00000
      5       2.9088      2.00000
      6       3.1115      2.00000
      7      22.1297      0.00000
      8      24.3469      0.00000
      9      25.8618      0.00000
     10      26.2178      0.00000
     11      31.8111      0.00000
     12      33.6956      0.00000

 k-point    11 :       0.1500    0.1500    0.0500
  band No.  band energies     occupation 
      1      -3.3954      2.00000
      2       0.9507      2.00000
      3       1.7038      2.00000
      4       1.7080      2.00000
      5       2.6642      2.00000
      6       3.2345      2.00000
      7      22.6183      0.00000
      8      23.4617      0.00000
      9      25.2809      0.00000
     10      25.8568      0.00000
     11      31.2345      0.00000
     12      32.7772      0.00000

 k-point    12 :       0.2500    0.1500    0.0500
  band No.  band energies     occupation 
      1      -2.5352      2.00000
      2       0.6750      2.00000
      3       1.8069      2.00000
      4       2.0131      2.00000
      5       2.6004      2.00000
      6       3.4787      2.00000
      7      21.0353      0.00000
      8      22.8216      0.00000
      9      24.8045      0.00000
     10      26.0881      0.00000
     11      29.1934      0.00000
     12      31.9111      0.00000

 k-point    13 :       0.3500    0.1500    0.0500
  band No.  band energies     occupation 
      1      -1.4913      2.00000
      2       0.7648      2.00000
      3       1.4706      2.00000
      4       2.0225      2.00000
      5       3.3289      2.00000
      6       4.1142      2.00000
      7      17.0344      0.00000
      8      22.2942      0.00000
      9      23.7411      0.00000
     10      26.1100      0.00000
     11      29.8322      0.00000
     12      31.5494      0.00000

 k-point    14 :       0.4500    0.1500    0.0500
  band No.  band energies     occupation 
      1      -1.1081      2.00000
      2       1.1359      2.00000
      3       1.7187      2.00000
      4       1.8949      2.00000
      5       4.1682      2.00000
      6       5.3533      2.00000
      7      12.9443      0.00000
      8      21.6617      0.00000
      9      22.5421      0.00000
     10      24.7792      0.00000
     11      31.6007      0.00000
     12      32.8366      0.00000

 k-point    15 :      -0.4500    0.1500    0.0500
  band No.  band energies     occupation 
      1      -1.0922      2.00000
      2       0.9941      2.00000
      3       1.6914      2.00000
      4       2.6761      2.00000
      5       4.3666      2.00000
      6       7.2268     -0.00000
      7       9.8604     -0.00000
      8      21.1668      0.00000
      9      22.2158      0.00000
     10      23.8961      0.00000
     11      32.2153      0.00000
     12      33.2214      0.00000

 k-point    16 :      -0.3500    0.1500    0.0500
  band No.  band energies     occupation 
      1      -1.0701      2.00000
      2       1.0841      2.00000
      3       1.7189      2.00000
      4       2.3142      2.00000
      5       4.0070      2.00000
      6       6.0932      2.03799
      7      11.7802     -0.00000
      8      20.9774      0.00000
      9      22.4948      0.00000
     10      24.9411      0.00000
     11      31.2597      0.00000
     12      32.9112      0.00000

 k-point    17 :      -0.2500    0.1500    0.0500
  band No.  band energies     occupation 
      1      -1.2438      2.00000
      2       1.0723      2.00000
      3       1.4098      2.00000
      4       1.9275      2.00000
      5       3.2339      2.00000
      6       4.7017      2.00000
      7      15.6697      0.00000
      8      21.3084      0.00000
      9      23.5903      0.00000
     10      27.0179      0.00000
     11      29.2983      0.00000
     12      31.9816      0.00000

 k-point    18 :      -0.1500    0.1500    0.0500
  band No.  band energies     occupation 
      1      -2.1634      2.00000
      2       0.7214      2.00000
      3       1.6883      2.00000
      4       2.0382      2.00000
      5       2.5954      2.00000
      6       3.7643      2.00000
      7      19.6293      0.00000
      8      21.9681      0.00000
      9      25.3377      0.00000
     10      26.3744      0.00000
     11      30.1092      0.00000
     12      30.9497      0.00000

 k-point    19 :      -0.0500    0.1500    0.0500
  band No.  band energies     occupation 
      1      -3.1765      2.00000
      2       0.9536      2.00000
      3       1.7050      2.00000
      4       1.7168      2.00000
      5       2.7078      2.00000
      6       3.2442      2.00000
      7      21.9850      0.00000
      8      22.8036      0.00000
      9      25.3536      0.00000
     10      27.1904      0.00000
     11      29.7408      0.00000
     12      32.8572      0.00000

 k-point    20 :       0.2500    0.2500    0.0500
  band No.  band energies     occupation 
      1      -1.9660      2.00000
      2       0.2831      2.00000
      3       1.9712      2.00000
      4       2.4343      2.00000
      5       2.6426      2.00000
      6       3.6136      2.00000
      7      21.5510      0.00000
      8      22.7411      0.00000
      9      23.6572      0.00000
     10      24.5825      0.00000
     11      26.2738      0.00000
     12      33.2596      0.00000

 k-point    21 :       0.3500    0.2500    0.0500
  band No.  band energies     occupation 
      1      -1.1436      2.00000
      2       0.0356      2.00000
      3       1.6842      2.00000
      4       2.8180      2.00000
      5       3.3664      2.00000
      6       4.1400      2.00000
      7      18.7924      0.00000
      8      20.7904      0.00000
      9      22.4180      0.00000
     10      25.1985      0.00000
     11      26.6237      0.00000
     12      33.3580      0.00000

 k-point    22 :       0.4500    0.2500    0.0500
  band No.  band energies     occupation 
      1      -0.6717      2.00000
      2       0.3138      2.00000
      3       1.4140      2.00000
      4       2.6685      2.00000
      5       4.2667      2.00000
      6       5.6519      2.00000
      7      14.5928      0.00000
      8      20.1056      0.00000
      9      20.6413      0.00000
     10      24.7575      0.00000
     11      29.8975      0.00000
     12      33.4091      0.00000

 k-point    23 :      -0.4500    0.2500    0.0500
  band No.  band energies     occupation 
      1      -0.5473      2.00000
      2       0.5966      2.00000
      3       1.6273      2.00000
      4       2.4471      2.00000
      5       4.4056      2.00000
      6       8.2178     -0.00000
      7      10.8916     -0.00000
      8      18.7942      0.00000
      9      20.7113      0.00000
     10      24.2523      0.00000
     11      32.4888      0.00000
     12      34.2386      0.00000

 k-point    24 :      -0.3500    0.2500    0.0500
  band No.  band energies     occupation 
      1      -0.3579      2.00000
      2       0.6697      2.00000
      3       1.6427      2.00000
      4       2.3320      2.00000
      5       3.9560      2.00000
      6       8.0515     -0.00000
      7      11.4740     -0.00000
      8      17.6670      0.00000
      9      21.9359      0.00000
     10      24.4339      0.00000
     11      31.5661      0.00000
     12      34.0101      0.00000

 k-point    25 :      -0.2500    0.2500    0.0500
  band No.  band energies     occupation 
      1      -0.2596      2.00000
      2       0.7610      2.00000
      3       1.0316      2.00000
      4       2.4201      2.00000
      5       3.1908      2.00000
      6       6.2129      2.06441
      7      14.9520      0.00000
      8      17.6037      0.00000
      9      23.0978      0.00000
     10      26.0805      0.00000
     11      29.2089      0.00000
     12      33.8818      0.00000

 k-point    26 :      -0.1500    0.2500    0.0500
  band No.  band energies     occupation 
      1      -1.0706      2.00000
      2       0.6339      2.00000
      3       1.3816      2.00000
      4       2.2887      2.00000
      5       2.7478      2.00000
      6       4.8031      2.00000
      7      17.1395      0.00000
      8      19.9086      0.00000
      9      24.0680      0.00000
     10      27.2157      0.00000
     11      28.5743      0.00000
     12      32.5615      0.00000

 k-point    27 :      -0.0500    0.2500    0.0500
  band No.  band energies     occupation 
      1      -2.0803      2.00000
      2       0.9177      2.00000
      3       1.6608      2.00000
      4       1.8273      2.00000
      5       2.9548      2.00000
      6       3.6855      2.00000
      7      18.2540      0.00000
      8      22.7368      0.00000
      9      25.0816      0.00000
     10      27.4640      0.00000
     11      29.4843      0.00000
     12      30.7647      0.00000

 k-point    28 :       0.3500    0.3500    0.0500
  band No.  band energies     occupation 
      1      -1.0179      2.00000
      2      -0.3800      2.00000
      3       2.6312      2.00000
      4       3.4047      2.00000
      5       3.8551      2.00000
      6       4.0737      2.00000
      7      18.7382      0.00000
      8      19.6896      0.00000
      9      20.0673      0.00000
     10      24.0419      0.00000
     11      25.9850      0.00000
     12      35.7953      0.00000

 k-point    29 :       0.4500    0.3500    0.0500
  band No.  band energies     occupation 
      1      -0.8761      2.00000
      2      -0.4984      2.00000
      3       2.6923      2.00000
      4       3.7355      2.00000
      5       4.2828      2.00000
      6       5.6801      2.00000
      7      15.8454      0.00000
      8      17.9811      0.00000
      9      18.6025      0.00000
     10      25.1081      0.00000
     11      27.0535      0.00000
     12      35.4022      0.00000

 k-point    30 :      -0.4500    0.3500    0.0500
  band No.  band energies     occupation 
      1      -0.6983      2.00000
      2      -0.1597      2.00000
      3       2.3020      2.00000
      4       3.3974      2.00000
      5       4.5158      2.00000
      6       8.4496     -0.00000
      7      12.4672      0.00000
      8      16.2666      0.00000
      9      18.6945      0.00000
     10      25.2971      0.00000
     11      29.8748      0.00000
     12      34.3853      0.00000

 k-point    31 :      -0.3500    0.3500    0.0500
  band No.  band energies     occupation 
      1      -0.3773      2.00000
      2       0.3920      2.00000
      3       1.7054      2.00000
      4       3.0308      2.00000
      5       4.1496      2.00000
      6       9.7211     -0.00000
      7      11.9023      0.00000
      8      14.5563      0.00000
      9      20.1192      0.00000
     10      24.9858      0.00000
     11      32.9346      0.00000
     12      33.5311      0.00000

 k-point    32 :      -0.2500    0.3500    0.0500
  band No.  band energies     occupation 
      1      -0.0595      2.00000
      2       0.7125      2.00000
      3       1.1617      2.00000
      4       2.6332      2.00000
      5       3.6897      2.00000
      6       7.8858     -0.00000
      7      13.3874      0.00000
      8      15.5557      0.00000
      9      21.9691      0.00000
     10      24.8367      0.00000
     11      31.1514      0.00000
     12      34.2405      0.00000

 k-point    33 :      -0.1500    0.3500    0.0500
  band No.  band energies     occupation 
      1      -0.6818      2.00000
      2       0.9718      2.00000
[...]
      1      -0.3778      2.00000
      2       0.2013      2.00000
      3       1.6320      2.00000
      4       3.1158      2.00000
      5       4.4150      2.00000
      6       9.3063     -0.00000
      7      11.6771     -0.00000
      8      16.2145      0.00000
      9      18.5712      0.00000
     10      26.1190      0.00000
     11      31.2762      0.00000
     12      33.3076      0.00000

 k-point    94 :       0.4500    0.4500    0.2500
  band No.  band energies     occupation 
      1      -0.7653      2.00000
      2       0.6858      2.00000
      3       1.4359      2.00000
      4       2.3096      2.00000
      5       4.4691      2.00000
      6       6.0235      2.01408
      7      13.1174      0.00000
      8      20.6220      0.00000
      9      21.4319      0.00000
     10      23.7904      0.00000
     11      31.9466      0.00000
     12      33.4008      0.00000

 k-point    95 :      -0.4500    0.4500    0.2500
  band No.  band energies     occupation 
      1      -0.3715      2.00000
      2       0.3879      2.00000
      3       1.3432      2.00000
      4       2.8674      2.00000
      5       4.3058      2.00000
      6       7.7673     -0.00000
      7      12.4041      0.00000
      8      18.0626      0.00000
      9      19.3543      0.00000
     10      25.6956      0.00000
     11      30.9577      0.00000
     12      33.5934      0.00000

 k-point    96 :      -0.3500    0.4500    0.2500
  band No.  band energies     occupation 
      1       0.0248      2.00000
      2       0.4680      2.00000
      3       0.9676      2.00000
      4       2.9932      2.00000
      5       4.4639      2.00000
      6       9.6834     -0.00000
      7      12.7901      0.00000
      8      14.7375      0.00000
      9      17.6505      0.00000
     10      28.4057      0.00000
     11      30.1115      0.00000
     12      33.7500      0.00000

 k-point    97 :      -0.2500    0.4500    0.2500
  band No.  band energies     occupation 
      1      -0.1099      2.00000
      2       0.4751      2.00000
      3       1.1393      2.00000
      4       2.9462      2.00000
      5       4.7139      2.00000
      6      11.0277     -0.00000
      7      12.4210      0.00000
      8      13.8282      0.00000
      9      16.6462      0.00000
     10      29.2285      0.00000
     11      30.7426      0.00000
     12      32.3181      0.00000

 k-point    98 :      -0.4500   -0.4500    0.2500
  band No.  band energies     occupation 
      1      -0.6050      2.00000
      2       0.1621      2.00000
      3       2.0198      2.00000
      4       3.0416      2.00000
      5       4.4283      2.00000
      6       9.1568     -0.00000
      7      11.2707     -0.00000
      8      16.3720      0.00000
      9      19.9069      0.00000
     10      24.4890      0.00000
     11      31.6356      0.00000
     12      34.4319      0.00000

 k-point    99 :      -0.3500   -0.4500    0.2500
  band No.  band energies     occupation 
      1      -0.4233      2.00000
      2       0.1236      2.00000
      3       1.8547      2.00000
      4       3.2066      2.00000
      5       4.4723      2.00000
      6      10.5923     -0.00000
      7      11.4373     -0.00000
      8      14.5215      0.00000
      9      18.2465      0.00000
     10      26.4229      0.00000
     11      31.6159      0.00000
     12      32.9182      0.00000

 k-point   100 :      -0.3500   -0.3500    0.2500
  band No.  band energies     occupation 
      1      -0.6264      2.00000
      2       0.0638      2.00000
      3       2.2346      2.00000
      4       3.3267      2.00000
      5       4.2951      2.00000
      6      10.4062     -0.00000
      7      11.0815     -0.00000
      8      14.5981      0.00000
      9      19.6045      0.00000
     10      24.7661      0.00000
     11      31.5971      0.00000
     12      34.6164      0.00000

 k-point   101 :       0.3500    0.3500    0.3500
  band No.  band energies     occupation 
      1      -1.6441      2.00000
      2       1.4816      2.00000
      3       1.4816      2.00000
      4       2.3813      2.00000
      5       3.8530      2.00000
      6       3.8530      2.00000
      7      14.0346      0.00000
      8      21.8319      0.00000
      9      25.9808      0.00000
     10      25.9808      0.00000
     11      31.1793      0.00000
     12      31.2501      0.00000

 k-point   102 :       0.4500    0.3500    0.3500
  band No.  band energies     occupation 
      1      -1.2823      2.00000
      2       1.2759      2.00000
      3       1.6029      2.00000
      4       2.3091      2.00000
      5       3.7297      2.00000
      6       5.1827      2.00000
      7      12.8984      0.00000
      8      21.4537      0.00000
      9      23.2050      0.00000
     10      25.9846      0.00000
     11      30.5795      0.00000
     12      32.2131      0.00000

 k-point   103 :      -0.4500    0.3500    0.3500
  band No.  band energies     occupation 
      1      -0.5309      2.00000
      2       0.8540      2.00000
      3       1.7242      2.00000
      4       2.1037      2.00000
      5       3.7030      2.00000
      6       7.0166     -0.00028
      7      12.3355      0.00000
      8      18.4352      0.00000
      9      23.1951      0.00000
     10      24.2159      0.00000
     11      30.9848      0.00000
     12      33.3462      0.00000

 k-point   104 :      -0.3500    0.3500    0.3500
  band No.  band energies     occupation 
      1      -0.2542      2.00000
      2       0.6501      2.00000
      3       1.4578      2.00000
      4       2.7918      2.00000
      5       3.8682      2.00000
      6       8.7288     -0.00000
      7      12.6783      0.00000
      8      14.8675      0.00000
      9      21.7984      0.00000
     10      24.0597      0.00000
     11      32.6960      0.00000
     12      33.9503      0.00000

 k-point   105 :       0.4500    0.4500    0.3500
  band No.  band energies     occupation 
      1      -1.2859      2.00000
      2       1.1753      2.00000
      3       1.6043      2.00000
      4       2.5402      2.00000
      5       4.4013      2.00000
      6       5.4488      2.00000
      7      11.6186     -0.00000
      8      21.5246      0.00000
      9      23.5748      0.00000
     10      24.1266      0.00000
     11      32.2794      0.00000
     12      32.6671      0.00000

 k-point   106 :      -0.4500    0.4500    0.3500
  band No.  band energies     occupation 
      1      -0.7886      2.00000
      2       0.8352      2.00000
      3       1.9155      2.00000
      4       2.1268      2.00000
      5       4.2342      2.00000
      6       7.3487     -0.00000
      7      10.7981     -0.00000
      8      20.4463      0.00000
      9      21.2527      0.00000
     10      24.5183      0.00000
     11      31.6447      0.00000
     12      33.9159      0.00000

 k-point   107 :      -0.3500    0.4500    0.3500
  band No.  band energies     occupation 
      1      -0.1544      2.00000
      2       0.4547      2.00000
      3       1.4502      2.00000
      4       2.6191      2.00000
      5       4.1867      2.00000
      6       9.3298     -0.00000
      7      10.7595     -0.00000
      8      17.0241      0.00000
      9      19.9786      0.00000
     10      25.5751      0.00000
     11      31.4771      0.00000
     12      35.5016      0.00000

 k-point   108 :      -0.4500   -0.4500    0.3500
  band No.  band energies     occupation 
      1      -0.6709      2.00000
      2       0.7366      2.00000
      3       1.9513      2.00000
      4       2.1397      2.00000
      5       4.3419      2.00000
      6       8.5969     -0.00000
      7       9.8307     -0.00000
      8      19.1914      0.00000
      9      22.2429      0.00000
     10      23.2156      0.00000
     11      33.1164      0.00000
     12      33.3470      0.00000

 k-point   109 :       0.4500    0.4500    0.4500
  band No.  band energies     occupation 
      1      -1.5541      2.00000
      2       1.3281      2.00000
      3       1.3281      2.00000
      4       4.3418      2.00000
      5       4.3418      2.00000
      6       4.5511      2.00000
      7      10.5385     -0.00000
      8      21.1257      0.00000
      9      24.6950      0.00000
     10      24.6950      0.00000
     11      32.1050      0.00000
     12      32.1050      0.00000

 k-point   110 :      -0.4500    0.4500    0.4500
  band No.  band energies     occupation 
      1      -1.2795      2.00000
      2       1.1278      2.00000
      3       1.5173      2.00000
      4       3.1454      2.00000
      5       4.3148      2.00000
      6       6.6058     -0.01293
      7       9.8917     -0.00000
      8      21.1940      0.00000
      9      23.0427      0.00000
     10      24.1225      0.00000
     11      32.3432      0.00000
     12      32.5568      0.00000


--------------------------------------------------------------------------------------------------------


 soft charge-density along one line, spin component           1
         0         1         2         3         4         5         6         7         8         9
 total charge-density along one line
 
 pseudopotential strength for first ion, spin component:           1
 -9.529   0.000   0.000   0.000   0.000   0.000   0.000   0.000   0.000   0.000  -0.135   0.000  -0.000   0.000  -0.000   0.000
  0.000   0.000  -9.529   0.000  -0.000   0.000   0.000   0.000   0.000   0.000  -0.000   0.000  -0.135   0.000   0.000   0.000
  0.000   0.000  -0.000   0.000  -9.509   0.000  -0.000   0.000   0.000   0.000  -0.000   0.000   0.000   0.000  -0.138   0.000
  0.000   0.000   0.000   0.000  -0.000   0.000  -9.529   0.000  -0.000   0.000  -0.000   0.000  -0.000   0.000   0.000   0.000
  0.000   0.000   0.000   0.000   0.000   0.000  -0.000   0.000  -9.509   0.000  -0.000   0.000  -0.000   0.000  -0.000   0.000
 -0.135   0.000  -0.000   0.000  -0.000   0.000  -0.000   0.000  -0.000   0.000   0.289   0.000   0.000   0.000   0.000   0.000
 -0.000   0.000  -0.135   0.000   0.000   0.000  -0.000   0.000  -0.000   0.000   0.000   0.000   0.289   0.000  -0.000   0.000
 -0.000   0.000   0.000   0.000  -0.138   0.000   0.000   0.000  -0.000   0.000   0.000   0.000  -0.000   0.000   0.289   0.000
 -0.000   0.000  -0.000   0.000   0.000   0.000  -0.135   0.000   0.000   0.000   0.000   0.000   0.000   0.000  -0.000   0.000
 -0.000   0.000  -0.000   0.000  -0.000   0.000   0.000   0.000  -0.138   0.000   0.000   0.000   0.000   0.000   0.000   0.000
  0.000   0.000   0.000   0.000   0.000   0.000   0.000   0.000   0.000   0.000   0.000   0.000   0.000   0.000  -0.000   0.000
 -0.000   0.000  -0.000   0.000  -0.000   0.000  -0.000   0.000  -0.000   0.000   0.000   0.000   0.000   0.000   0.000   0.000
 -0.000   0.000  -0.000   0.000   0.000   0.000   0.000   0.000   0.000   0.000   0.000   0.000   0.000   0.000  -0.000   0.000
  0.000   0.000  -0.000   0.000  -0.000   0.000  -0.000   0.000  -0.000   0.000  -0.000   0.000   0.000   0.000   0.000   0.000
 -0.000   0.000   0.000   0.000   0.000   0.000  -0.000   0.000  -0.000   0.000   0.000   0.000  -0.000   0.000  -0.000   0.000
  0.000   0.000   0.000   0.000  -0.000   0.000  -0.000   0.000  -0.000   0.000  -0.000   0.000  -0.000   0.000   0.000   0.000
 -0.000   0.000   0.000   0.000   0.000   0.000   0.000   0.000   0.000   0.000   0.000   0.000  -0.000   0.000  -0.000   0.000
  0.000   0.000  -0.000   0.000  -0.000   0.000   0.000   0.000   0.000   0.000  -0.000   0.000   0.000   0.000   0.000   0.000
 total augmentation occupancy for first ion, spin component:           1
  1.904  -0.000  -0.000   0.000   0.000  -0.015  -0.000   0.000   0.000   0.000   0.000   0.000   0.000   0.000   0.000   0.000
 -0.000   1.904  -0.000  -0.000   0.000  -0.000  -0.015   0.000  -0.000  -0.000   0.000  -0.000   0.000   0.000   0.000   0.000
  0.000   0.000   1.954   0.000   0.000   0.000   0.000  -0.067  -0.000   0.000   0.000   0.000   0.000   0.000   0.000   0.000
  0.000  -0.000  -0.000   1.904   0.000  -0.000   0.000  -0.000  -0.015   0.000  -0.000  -0.000   0.000   0.000   0.000   0.000
  0.000  -0.000   0.000  -0.000   1.954   0.000   0.000   0.000   0.000  -0.067   0.000  -0.000   0.000   0.000   0.000   0.000
 -0.015  -0.000   0.000  -0.000  -0.000   0.256  -0.000   0.000  -0.000   0.000   0.000   0.000   0.000   0.000   0.000   0.000
 -0.000  -0.015   0.000   0.000   0.000  -0.000   0.256  -0.000  -0.000   0.000   0.000  -0.000   0.000   0.000   0.000   0.000
 -0.000   0.000  -0.067  -0.000  -0.000  -0.000   0.000   0.204   0.000   0.000   0.000   0.000   0.000   0.000   0.000   0.000
  0.000   0.000  -0.000  -0.015   0.000   0.000  -0.000   0.000   0.256  -0.000   0.000  -0.000   0.000   0.000   0.000   0.000
 -0.000   0.000   0.000  -0.000  -0.067  -0.000   0.000   0.000   0.000   0.204  -0.000   0.000   0.000   0.000   0.000   0.000
  0.000   0.000  -0.000   0.000   0.000   0.000   0.000   0.000  -0.000  -0.000   1.115  -0.431   0.000   0.000   0.000   0.000
  0.000   0.000   0.000  -0.000  -0.000   0.000   0.000  -0.000  -0.000   0.000  -0.431   0.303   0.000   0.000   0.000   0.000
  0.000   0.000   0.000   0.000   0.000   0.000   0.000   0.000   0.000   0.000   0.000   0.000   0.191   0.000   0.000  -0.015
  0.000   0.000   0.000   0.000   0.000   0.000   0.000   0.000   0.000   0.000   0.000   0.000  -0.000   0.191  -0.000  -0.000
  0.000   0.000   0.000   0.000   0.000   0.000   0.000   0.000   0.000   0.000   0.000   0.000  -0.000  -0.000   0.191   0.000
  0.000   0.000   0.000   0.000   0.000   0.000   0.000   0.000   0.000   0.000   0.000   0.000  -0.015   0.000   0.000   0.001
  0.000   0.000   0.000   0.000   0.000   0.000   0.000   0.000   0.000   0.000   0.000   0.000   0.000  -0.015   0.000   0.000
  0.000   0.000   0.000   0.000   0.000   0.000   0.000   0.000   0.000   0.000   0.000   0.000  -0.000   0.000  -0.015  -0.000


------------------------ aborting loop because EDIFF is reached ----------------------------------------


    CHARGE:  cpu time    0.0032: real time    0.0031
    FORLOC:  cpu time    0.0002: real time    0.0001
    FORNL :  cpu time    0.0081: real time    0.0081
    STRESS:  cpu time    0.0535: real time    0.0536
    FORCOR:  cpu time    0.0008: real time    0.0007
    FORHAR:  cpu time    0.0004: real time    0.0005
    MIXING:  cpu time    0.0002: real time    0.0002
    OFIELD:  cpu time    0.0000: real time    0.0000

  FORCE on cell =-STRESS in cart. coord.  units (eV):
  Direction    XX          YY          ZZ          XY          YZ          ZX
  --------------------------------------------------------------------------------------
  Alpha Z   114.86746   114.86746   114.86746
  Ewald    -332.85608  -332.85608  -332.85608    -0.00000     0.00000     0.00000
  Hartree    34.60282    34.60282    34.60282     0.00002     0.00002     0.00002
  E(xc)     -49.34012   -49.34012   -49.34012    -0.00004    -0.00004    -0.00004
  Local      84.40711    84.40711    84.40711    -0.00089    -0.00089    -0.00089
  n-local   -48.08216   -45.07278   -48.91080     0.60261    -0.64970     0.01950
  augment    42.34581    42.34581    42.34581    -0.00054    -0.00054    -0.00054
  Kinetic   153.95642   152.85282   155.04244    -0.34911     0.15491     0.01865
  Fock        0.00000     0.00000     0.00000     0.00000     0.00000     0.00000
  -------------------------------------------------------------------------------------
  Total       0.62231     0.62231     0.62231     0.00000     0.00000    -0.00000
  in kB      62.31605    62.31605    62.31605     0.00000     0.00000    -0.00000
  external pressure =       62.32 kB  Pullay stress =        0.00 kB


 VOLUME and BASIS-vectors are now :
 -----------------------------------------------------------------------------
  energy-cutoff  :      229.87
  volume of cell :       16.00
      direct lattice vectors                 reciprocal lattice vectors
     0.000000000  2.000000000  2.000000000    -0.250000000  0.250000000  0.250000000
     2.000000000  0.000000000  2.000000000     0.250000000 -0.250000000  0.250000000
     2.000000000  2.000000000  0.000000000     0.250000000  0.250000000 -0.250000000

  length of vectors
     2.828427125  2.828427125  2.828427125     0.433012702  0.433012702  0.433012702


 FORCES acting on ions
    electron-ion (+dipol)            ewald-force                    non-local-force                 convergence-correction
 -----------------------------------------------------------------------------------------------
   0.115E-13 0.994E-14 0.105E-13   0.436E-15 0.732E-15 -.199E-14   -.132E-22 -.132E-22 -.662E-23   0.757E-14 0.840E-14 0.669E-14
 -----------------------------------------------------------------------------------------------
   0.115E-13 0.994E-14 0.105E-13   0.436E-15 0.732E-15 -.199E-14   -.132E-22 -.132E-22 -.662E-23   0.757E-14 0.840E-14 0.669E-14
 
 
 POSITION                                       TOTAL-FORCE (eV/Angst)
 -----------------------------------------------------------------------------------
      0.00000      0.00000      0.00000        -0.000000     -0.000000      0.000000
 -----------------------------------------------------------------------------------
    total drift:                                0.000000      0.000000      0.000000


--------------------------------------------------------------------------------------------------------



  FREE ENERGIE OF THE ION-ELECTRON SYSTEM (eV)
  ---------------------------------------------------
  free  energy   TOTEN  =        -4.37351282 eV

  energy  without entropy=       -4.37410398  energy(sigma->0) =       -4.37370987
 


--------------------------------------------------------------------------------------------------------


    POTLOK:  cpu time    0.0028: real time    0.0028


--------------------------------------------------------------------------------------------------------


 writing wavefunctions
     LOOP+:  cpu time    2.2055: real time    2.2616
    4ORBIT:  cpu time    0.0000: real time    0.0000

volume of typ            1:    88.9 %
 
total charge     
 
# of ion       s       p       d       tot
------------------------------------------
    1        0.617   0.516   8.881  10.014
 
orbital moment (x)
 
# of ion     s             p             d             tot
-----------------------------------------------------------------
    1     0.000000E+00 -0.160978E-08 -0.295768E-08 -0.456746E-08
 
orbital moment (y)
 
# of ion     s             p             d             tot
-----------------------------------------------------------------
    1     0.000000E+00 -0.549096E-08 -0.841029E-10 -0.557507E-08
 
orbital moment (z)
 
# of ion     s             p             d             tot
-----------------------------------------------------------------
    1     0.000000E+00 -0.749124E-09  0.478785E-08  0.403873E-08
 

 total amount of memory used by VASP MPI-rank0    33328. kBytes
=======================================================================

   base      :      30000. kBytes
   nonl-proj :       2156. kBytes
   fftplans  :        142. kBytes
   grid      :        192. kBytes
   one-center:         15. kBytes
   wavefun   :        823. kBytes
 
  
  
 General timing and accounting informations for this job:
 ========================================================
  
                  Total CPU time used (sec):        2.794
                            User time (sec):        2.287
                          System time (sec):        0.507
                         Elapsed time (sec):        2.922
  
                   Maximum memory used (kb):       54776.
                   Average memory used (kb):           0.
  
                          Minor page faults:        21304
                          Major page faults:            0
                 Voluntary context switches:         1928
