PROCAR new format
# of k-points:  110         # of bands:   12         # of ions:    1

 k-point     1 :    0.05000000 0.05000000 0.05000000     weight = 0.00200000

band     1 # energy   -4.11432003 # occ.  2.00000000
 
ion      s      p      d    tot
    1  0.718  0.005  0.000  0.723
 
band     2 # energy    1.31097957 # occ.  2.00000000
 
ion      s      p      d    tot
    1  0.000  0.001  0.951  0.952
 
band     3 # energy    1.37630468 # occ.  2.00000000
 
ion      s      p      d    tot
    1  0.000  0.000  0.954  0.954
 
band     4 # energy    1.37630468 # occ.  2.00000000
 
ion      s      p      d    tot
    1  0.000  0.000  0.954  0.954
 
band     5 # energy    3.04721090 # occ.  2.00000000
 
ion      s      p      d    tot
    1  0.000  0.000  0.970  0.970
 
band     6 # energy    3.04721090 # occ.  2.00000000
 
ion      s      p      d    tot
    1  0.000  0.000  0.970  0.970
 
band     7 # energy   21.84706337 # occ.  0.00000000
 
ion      s      p      d    tot
    1  0.000  0.000  0.011  0.011
 
band     8 # energy   25.27372564 # occ.  0.00000000
 
ion      s      p      d    tot
    1  0.013  0.192  0.013  0.218
 
band     9 # energy   26.06496647 # occ.  0.00000000
 
ion      s      p      d    tot
    1  0.000  0.208  0.008  0.217
 
band    10 # energy   26.06496647 # occ.  0.00000000
 
ion      s      p      d    tot
    1  0.000  0.208  0.008  0.217
 
band    11 # energy   31.03116033 # occ.  0.00000000
 
ion      s      p      d    tot
    1  0.044  0.050  0.010  0.105
 
band    12 # energy   34.53926467 # occ.  0.00000000
 
ion      s      p      d    tot
    1  0.009  0.159  0.425  0.593
 

 k-point     2 :    0.15000000 0.05000000 0.05000000     weight = 0.00600000

band     1 # energy   -3.63372902 # occ.  2.00000000
 
ion      s      p      d    tot
    1  0.689  0.032  0.004  0.725
 
band     2 # energy    1.13915837 # occ.  2.00000000
 
ion      s      p      d    tot
    1  0.000  0.007  0.936  0.943
 
band     3 # energy    1.52951756 # occ.  2.00000000
 
ion      s      p      d    tot
    1  0.000  0.000  0.953  0.953
 
band     4 # energy    1.56561755 # occ.  2.00000000
 
ion      s      p      d    tot
    1  0.001  0.005  0.946  0.952
 
band     5 # energy    2.88216651 # occ.  2.00000000
 
ion      s      p      d    tot
    1  0.000  0.000  0.963  0.963
 
band     6 # energy    3.10247523 # occ.  2.00000000
 
ion      s      p      d    tot
    1  0.000  0.000  0.967  0.968
 
band     7 # energy   22.29261896 # occ.  0.00000000
 
ion      s      p      d    tot
    1  0.003  0.027  0.088  0.118
 
band     8 # energy   23.27354015 # occ.  0.00000000
 
ion      s      p      d    tot
    1  0.043  0.173  0.036  0.252
 
band     9 # energy   25.77528481 # occ.  0.00000000
 
ion      s      p      d    tot
    1  0.000  0.273  0.056  0.329
 
band    10 # energy   27.05352039 # occ.  0.00000000
 
ion      s      p      d    tot
    1  0.000  0.198  0.042  0.240
 
band    11 # energy   30.70150138 # occ.  0.00000000
 
ion      s      p      d    tot
    1  0.002  0.302  0.160  0.464
 
band    12 # energy   33.42048506 # occ.  0.00000000
 
ion      s      p      d    tot
    1  0.001  0.181  0.257  0.440
 

 k-point     3 :    0.25000000 0.05000000 0.05000000     weight = 0.00600000

band     1 # energy   -2.60035529 # occ.  2.00000000
 
ion      s      p      d    tot
    1  0.602  0.075  0.064  0.740
 
band     2 # energy    1.00336897 # occ.  2.00000000
 
ion      s      p      d    tot
    1  0.018  0.043  0.856  0.916
 
band     3 # energy    1.69740774 # occ.  2.00000000
 
ion      s      p      d    tot
    1  0.002  0.009  0.936  0.947
 
band     4 # energy    1.72243890 # occ.  2.00000000
 
ion      s      p      d    tot
    1  0.000  0.001  0.951  0.951
 
band     5 # energy    2.88906360 # occ.  2.00000000
 
ion      s      p      d    tot
    1  0.000  0.002  0.955  0.956
 
band     6 # energy    3.33881779 # occ.  2.00000000
 
ion      s      p      d    tot
    1  0.004  0.004  0.955  0.963
 
band     7 # energy   19.49140253 # occ.  0.00000000
 
ion      s      p      d    tot
    1  0.103  0.277  0.166  0.545
 
band     8 # energy   22.93605479 # occ.  0.00000000
 
ion      s      p      d    tot
    1  0.002  0.025  0.111  0.139
 
band     9 # energy   26.10158668 # occ.  0.00000000
 
ion      s      p      d    tot
    1  0.003  0.381  0.125  0.509
 
band    10 # energy   28.47630864 # occ.  0.00000000
 
ion      s      p      d    tot
    1  0.023  0.210  0.042  0.275
 
band    11 # energy   28.53473946 # occ.  0.00000000
 
ion      s      p      d    tot
    1  0.000  0.288  0.132  0.420
 
band    12 # energy   31.16105975 # occ.  0.00000000
 
ion      s      p      d    tot
    1  0.000  0.254  0.231  0.485
 

 k-point     4 :    0.35000000 0.05000000 0.05000000     weight = 0.00600000

band     1 # energy   -1.69588322 # occ.  2.00000000
 
ion      s      p      d    tot
    1  0.398  0.054  0.352  0.805
 
band     2 # energy    1.49569584 # occ.  2.00000000
 
ion      s      p      d    tot
    1  0.017  0.025  0.890  0.933
 
band     3 # energy    1.59369209 # occ.  2.00000000
 
ion      s      p      d    tot
    1  0.000  0.000  0.946  0.946
 
band     4 # energy    1.71881595 # occ.  2.00000000
 
ion      s      p      d    tot
    1  0.091  0.162  0.593  0.846
 
band     5 # energy    3.43059451 # occ.  2.00000000
 
ion      s      p      d    tot
    1  0.000  0.003  0.957  0.959
 
band     6 # energy    3.96891354 # occ.  2.00000000
 
ion      s      p      d    tot
    1  0.015  0.017  0.927  0.959
 
band     7 # energy   15.42781634 # occ.  0.00000000
 
ion      s      p      d    tot
    1  0.202  0.296  0.218  0.715
 
band     8 # energy   22.19820883 # occ.  0.00000000
 
ion      s      p      d    tot
    1  0.000  0.037  0.071  0.108
 
band     9 # energy   25.16677107 # occ.  0.00000000
 
ion      s      p      d    tot
    1  0.010  0.484  0.110  0.605
 
band    10 # energy   27.47772332 # occ.  0.00000000
 
ion      s      p      d    tot
    1  0.000  0.522  0.096  0.618
 
band    11 # energy   29.68092702 # occ.  0.00000000
 
ion      s      p      d    tot
    1  0.026  0.075  0.137  0.238
 
band    12 # energy   30.91144714 # occ.  0.00000000
 
ion      s      p      d    tot
    1  0.000  0.007  0.367  0.373
 

 k-point     5 :    0.45000000 0.05000000 0.05000000     weight = 0.00600000

band     1 # energy   -1.48497615 # occ.  2.00000000
 
ion      s      p      d    tot
    1  0.244  0.012  0.605  0.860
 
band     2 # energy    1.32900799 # occ.  2.00000000
 
ion      s      p      d    tot
    1  0.000  0.002  0.939  0.941
 
band     3 # energy    1.40768182 # occ.  2.00000000
 
ion      s      p      d    tot
    1  0.000  0.000  0.943  0.943
 
band     4 # energy    3.32858337 # occ.  2.00000000
 
ion      s      p      d    tot
    1  0.067  0.281  0.463  0.810
 
band     5 # energy    4.09960660 # occ.  2.00000000
 
ion      s      p      d    tot
    1  0.000  0.002  0.968  0.970
 
band     6 # energy    4.86893670 # occ.  2.00000000
 
ion      s      p      d    tot
    1  0.058  0.158  0.674  0.890
 
band     7 # energy   11.56905587 # occ. -0.00000000
 
ion      s      p      d    tot
    1  0.352  0.180  0.293  0.824
 
band     8 # energy   21.35428505 # occ.  0.00000000
 
ion      s      p      d    tot
    1  0.000  0.029  0.026  0.055
 
band     9 # energy   24.14564257 # occ.  0.00000000
 
ion      s      p      d    tot
    1  0.009  0.501  0.049  0.558
 
band    10 # energy   25.29147771 # occ.  0.00000000
 
ion      s      p      d    tot
    1  0.000  0.506  0.033  0.540
 
band    11 # energy   31.68190150 # occ.  0.00000000
 
ion      s      p      d    tot
    1  0.014  0.011  0.403  0.428
 
band    12 # energy   32.05121142 # occ.  0.00000000
 
ion      s      p      d    tot
    1  0.000  0.006  0.545  0.551
 

 k-point     6 :   -0.45000000 0.05000000 0.05000000     weight = 0.00600000

band     1 # energy   -1.48483958 # occ.  2.00000000
 
ion      s      p      d    tot
    1  0.214  0.004  0.653  0.871
 
band     2 # energy    1.25477882 # occ.  2.00000000
 
ion      s      p      d    tot
    1  0.000  0.001  0.939  0.940
 
band     3 # energy    1.36278481 # occ.  2.00000000
 
ion      s      p      d    tot
    1  0.000  0.001  0.942  0.943
 
band     4 # energy    3.81998016 # occ.  2.00000000
 
ion      s      p      d    tot
    1  0.002  0.178  0.699  0.879
 
band     5 # energy    4.42188718 # occ.  2.00000000
 
ion      s      p      d    tot
    1  0.000  0.000  0.977  0.977
 
band     6 # energy    5.66646711 # occ.  2.00000090
 
ion      s      p      d    tot
    1  0.009  0.452  0.292  0.752
 
band     7 # energy    9.89874568 # occ. -0.00000000
 
ion      s      p      d    tot
    1  0.493  0.016  0.387  0.896
 
band     8 # energy   21.12303926 # occ.  0.00000000
 
ion      s      p      d    tot
    1  0.000  0.025  0.015  0.040
 
band     9 # energy   24.18391820 # occ.  0.00000000
 
ion      s      p      d    tot
    1  0.009  0.498  0.030  0.536
 
band    10 # energy   24.29681555 # occ.  0.00000000
 
ion      s      p      d    tot
    1  0.000  0.511  0.016  0.527
 
band    11 # energy   32.26586390 # occ.  0.00000000
 
ion      s      p      d    tot
    1  0.000  0.001  0.549  0.550
 
band    12 # energy   32.35317500 # occ.  0.00000000
 
ion      s      p      d    tot
    1  0.001  0.001  0.561  0.563
 

 k-point     7 :   -0.35000000 0.05000000 0.05000000     weight = 0.00600000

band     1 # energy   -1.50757385 # occ.  2.00000000
 
ion      s      p      d    tot
    1  0.277  0.022  0.549  0.848
 
band     2 # energy    1.36253485 # occ.  2.00000000
 
ion      s      p      d    tot
    1  0.000  0.000  0.941  0.941
 
band     3 # energy    1.48579502 # occ.  2.00000000
 
ion      s      p      d    tot
    1  0.000  0.002  0.943  0.945
 
band     4 # energy    2.71836380 # occ.  2.00000000
 
ion      s      p      d    tot
    1  0.102  0.261  0.444  0.807
 
band     5 # energy    4.19323709 # occ.  2.00000000
 
ion      s      p      d    tot
    1  0.000  0.001  0.971  0.973
 
band     6 # energy    4.28985901 # occ.  2.00000000
 
ion      s      p      d    tot
    1  0.048  0.093  0.776  0.917
 
band     7 # energy   12.76967689 # occ.  0.00000000
 
ion      s      p      d    tot
    1  0.293  0.237  0.259  0.789
 
band     8 # energy   21.60356278 # occ.  0.00000000
 
ion      s      p      d    tot
    1  0.000  0.027  0.031  0.058
 
band     9 # energy   24.65443751 # occ.  0.00000000
 
ion      s      p      d    tot
    1  0.000  0.513  0.066  0.580
 
band    10 # energy   25.52656892 # occ.  0.00000000
 
ion      s      p      d    tot
    1  0.012  0.484  0.071  0.568
 
band    11 # energy   31.63242573 # occ.  0.00000000
 
ion      s      p      d    tot
    1  0.007  0.042  0.399  0.449
 
band    12 # energy   31.73411357 # occ.  0.00000000
 
ion      s      p      d    tot
    1  0.000  0.001  0.382  0.382
 

 k-point     8 :   -0.25000000 0.05000000 0.05000000     weight = 0.00600000

band     1 # energy   -1.92085078 # occ.  2.00000000
 
ion      s      p      d    tot
    1  0.476  0.071  0.231  0.778
 
band     2 # energy    1.27094985 # occ.  2.00000000
 
ion      s      p      d    tot
    1  0.069  0.110  0.696  0.875
 
band     3 # energy    1.60804213 # occ.  2.00000000
 
ion      s      p      d    tot
    1  0.004  0.012  0.922  0.938
 
band     4 # energy    1.67812033 # occ.  2.00000000
 
ion      s      p      d    tot
    1  0.000  0.004  0.945  0.948
 
band     5 # energy    3.32694593 # occ.  2.00000000
 
ion      s      p      d    tot
    1  0.012  0.014  0.926  0.952
 
band     6 # energy    3.63007414 # occ.  2.00000000
 
ion      s      p      d    tot
    1  0.000  0.003  0.962  0.965
 
band     7 # energy   16.79922206 # occ.  0.00000000
 
ion      s      p      d    tot
    1  0.164  0.303  0.202  0.669
 
band     8 # energy   22.58870809 # occ.  0.00000000
 
ion      s      p      d    tot
    1  0.000  0.025  0.081  0.107
 
band     9 # energy   25.71137087 # occ.  0.00000000
 
ion      s      p      d    tot
    1  0.000  0.481  0.152  0.633
 
band    10 # energy   27.60197604 # occ.  0.00000000
 
ion      s      p      d    tot
    1  0.027  0.422  0.118  0.567
 
band    11 # energy   29.38355110 # occ.  0.00000000
 
ion      s      p      d    tot
    1  0.005  0.183  0.129  0.316
 
band    12 # energy   31.18241166 # occ.  0.00000000
 
ion      s      p      d    tot
    1  0.000  0.026  0.186  0.212
 

 k-point     9 :   -0.15000000 0.05000000 0.05000000     weight = 0.00600000

band     1 # energy   -2.97872868 # occ.  2.00000000
 
ion      s      p      d    tot
    1  0.640  0.063  0.029  0.732
 
band     2 # energy    0.99367726 # occ.  2.00000000
 
ion      s      p      d    tot
    1  0.007  0.023  0.899  0.929
 
band     3 # energy    1.68896877 # occ.  2.00000000
 
ion      s      p      d    tot
    1  0.001  0.005  0.944  0.950
 
band     4 # energy    1.70343755 # occ.  2.00000000
 
ion      s      p      d    tot
    1  0.000  0.005  0.947  0.952
 
band     5 # energy    2.84208222 # occ.  2.00000000
 
ion      s      p      d    tot
    1  0.002  0.002  0.952  0.957
 
band     6 # energy    3.20376214 # occ.  2.00000000
 
ion      s      p      d    tot
    1  0.000  0.001  0.964  0.965
 
band     7 # energy   20.76889689 # occ.  0.00000000
 
ion      s      p      d    tot
    1  0.075  0.250  0.150  0.475
 
band     8 # energy   22.99264381 # occ.  0.00000000
 
ion      s      p      d    tot
    1  0.005  0.003  0.076  0.084
 
band     9 # energy   26.09622515 # occ.  0.00000000
 
ion      s      p      d    tot
    1  0.000  0.350  0.129  0.480
 
band    10 # energy   27.55383442 # occ.  0.00000000
 
ion      s      p      d    tot
    1  0.000  0.202  0.086  0.287
 
band    11 # energy   29.36722837 # occ.  0.00000000
 
ion      s      p      d    tot
    1  0.026  0.340  0.071  0.436
 
band    12 # energy   31.94430869 # occ.  0.00000000
 
ion      s      p      d    tot
    1  0.000  0.134  0.184  0.318
 

 k-point    10 :   -0.05000000 0.05000000 0.05000000     weight = 0.00600000

band     1 # energy   -3.86971014 # occ.  2.00000000
 
ion      s      p      d    tot
    1  0.704  0.019  0.001  0.724
 
band     2 # energy    1.18996997 # occ.  2.00000000
 
ion      s      p      d    tot
    1  0.000  0.002  0.946  0.948
 
band     3 # energy    1.48236846 # occ.  2.00000000
 
ion      s      p      d    tot
    1  0.000  0.002  0.951  0.953
 
band     4 # energy    1.48847889 # occ.  2.00000000
 
ion      s      p      d    tot
    1  0.000  0.003  0.951  0.953
 
band     5 # energy    2.90881967 # occ.  2.00000000
 
ion      s      p      d    tot
    1  0.000  0.000  0.964  0.965
 
band     6 # energy    3.11147822 # occ.  2.00000000
 
ion      s      p      d    tot
    1  0.000  0.000  0.970  0.970
 
band     7 # energy   22.12965277 # occ.  0.00000000
 
ion      s      p      d    tot
    1  0.000  0.003  0.041  0.044
 
band     8 # energy   24.34688687 # occ.  0.00000000
 
ion      s      p      d    tot
    1  0.031  0.176  0.031  0.237
 
band     9 # energy   25.86182057 # occ.  0.00000000
 
ion      s      p      d    tot
    1  0.000  0.250  0.042  0.291
 
band    10 # energy   26.21782999 # occ.  0.00000000
 
ion      s      p      d    tot
    1  0.002  0.212  0.031  0.245
 
band    11 # energy   31.81109524 # occ.  0.00000000
 
ion      s      p      d    tot
    1  0.005  0.222  0.095  0.323
 
band    12 # energy   33.69557382 # occ.  0.00000000
 
ion      s      p      d    tot
    1  0.000  0.173  0.360  0.533
 

 k-point    11 :    0.15000000 0.15000000 0.05000000     weight = 0.00600000

band     1 # energy   -3.39537173 # occ.  2.00000000
 
ion      s      p      d    tot
    1  0.674  0.046  0.006  0.726
 
band     2 # energy    0.95067347 # occ.  2.00000000
 
ion      s      p      d    tot
    1  0.000  0.002  0.939  0.941
 
band     3 # energy    1.70384845 # occ.  2.00000000
 
ion      s      p      d    tot
    1  0.000  0.007  0.944  0.951
 
band     4 # energy    1.70797751 # occ.  2.00000000
 
ion      s      p      d    tot
    1  0.000  0.007  0.945  0.952
 
band     5 # energy    2.66417920 # occ.  2.00000000
 
ion      s      p      d    tot
    1  0.003  0.001  0.951  0.955
 
band     6 # energy    3.23451877 # occ.  2.00000000
 
ion      s      p      d    tot
    1  0.000  0.000  0.970  0.970
 
band     7 # energy   22.61825438 # occ.  0.00000000
 
ion      s      p      d    tot
    1  0.002  0.023  0.107  0.132
 
band     8 # energy   23.46165914 # occ.  0.00000000
 
ion      s      p      d    tot
    1  0.045  0.153  0.055  0.253
 
band     9 # energy   25.28092882 # occ.  0.00000000
 
ion      s      p      d    tot
    1  0.000  0.326  0.100  0.426
 
band    10 # energy   25.85684010 # occ.  0.00000000
 
ion      s      p      d    tot
    1  0.004  0.237  0.083  0.324
 
band    11 # energy   31.23452565 # occ.  0.00000000
 
ion      s      p      d    tot
    1  0.040  0.440  0.085  0.566
 
band    12 # energy   32.77716418 # occ.  0.00000000
 
ion      s      p      d    tot
    1  0.000  0.137  0.216  0.353
 

 k-point    12 :    0.25000000 0.15000000 0.05000000     weight = 0.01200000

band     1 # energy   -2.53519466 # occ.  2.00000000
 
ion      s      p      d    tot
    1  0.608  0.087  0.038  0.733
 
band     2 # energy    0.67503362 # occ.  2.00000000
 
ion      s      p      d    tot
    1  0.001  0.010  0.919  0.930
 
band     3 # energy    1.80693789 # occ.  2.00000000
 
ion      s      p      d    tot
    1  0.000  0.009  0.934  0.944
 
band     4 # energy    2.01305678 # occ.  2.00000000
 
ion      s      p      d    tot
    1  0.000  0.008  0.942  0.951
 
band     5 # energy    2.60042556 # occ.  2.00000000
 
ion      s      p      d    tot
    1  0.014  0.012  0.920  0.946
 
band     6 # energy    3.47867220 # occ.  2.00000000
 
ion      s      p      d    tot
    1  0.003  0.003  0.962  0.968
 
band     7 # energy   21.03533462 # occ.  0.00000000
 
ion      s      p      d    tot
    1  0.082  0.257  0.137  0.476
 
band     8 # energy   22.82163414 # occ.  0.00000000
 
ion      s      p      d    tot
    1  0.006  0.162  0.213  0.381
 
band     9 # energy   24.80447267 # occ.  0.00000000
 
ion      s      p      d    tot
    1  0.000  0.258  0.089  0.347
 
band    10 # energy   26.08808592 # occ.  0.00000000
 
ion      s      p      d    tot
    1  0.004  0.175  0.138  0.317
 
band    11 # energy   29.19336802 # occ.  0.00000000
 
ion      s      p      d    tot
    1  0.089  0.502  0.018  0.609
 
band    12 # energy   31.91108338 # occ.  0.00000000
 
ion      s      p      d    tot
    1  0.007  0.171  0.180  0.358
 

 k-point    13 :    0.35000000 0.15000000 0.05000000     weight = 0.01200000

band     1 # energy   -1.49132631 # occ.  2.00000000
 
ion      s      p      d    tot
    1  0.444  0.096  0.236  0.776
 
band     2 # energy    0.76482549 # occ.  2.00000000
 
ion      s      p      d    tot
    1  0.042  0.070  0.781  0.893
 
band     3 # energy    1.47055339 # occ.  2.00000000
 
ion      s      p      d    tot
    1  0.001  0.007  0.924  0.932
 
band     4 # energy    2.02247034 # occ.  2.00000000
 
ion      s      p      d    tot
    1  0.002  0.009  0.937  0.947
 
band     5 # energy    3.32890574 # occ.  2.00000000
 
ion      s      p      d    tot
    1  0.026  0.031  0.885  0.942
 
band     6 # energy    4.11419773 # occ.  2.00000000
 
ion      s      p      d    tot
    1  0.027  0.023  0.909  0.959
 
band     7 # energy   17.03443856 # occ.  0.00000000
 
ion      s      p      d    tot
    1  0.163  0.324  0.186  0.673
 
band     8 # energy   22.29418977 # occ.  0.00000000
 
ion      s      p      d    tot
    1  0.005  0.220  0.200  0.425
 
band     9 # energy   23.74105434 # occ.  0.00000000
 
ion      s      p      d    tot
    1  0.014  0.293  0.098  0.405
 
band    10 # energy   26.10997334 # occ.  0.00000000
 
ion      s      p      d    tot
    1  0.038  0.264  0.179  0.482
 
band    11 # energy   29.83218031 # occ.  0.00000000
 
ion      s      p      d    tot
    1  0.021  0.415  0.015  0.451
 
band    12 # energy   31.54935956 # occ.  0.00000000
 
ion      s      p      d    tot
    1  0.010  0.015  0.236  0.261
 

 k-point    14 :    0.45000000 0.15000000 0.05000000     weight = 0.01200000

band     1 # energy   -1.10805830 # occ.  2.00000000
 
ion      s      p      d    tot
    1  0.240  0.040  0.572  0.851
 
band     2 # energy    1.13591993 # occ.  2.00000000
 
ion      s      p      d    tot
    1  0.000  0.010  0.912  0.922
 
band     3 # energy    1.71872887 # occ.  2.00000000
 
ion      s      p      d    tot
    1  0.039  0.099  0.752  0.890
 
band     4 # energy    1.89488493 # occ.  2.00000000
 
ion      s      p      d    tot
    1  0.033  0.075  0.796  0.904
 
band     5 # energy    4.16818527 # occ.  2.00000000
 
ion      s      p      d    tot
    1  0.005  0.016  0.943  0.964
 
band     6 # energy    5.35326539 # occ.  2.00000000
 
ion      s      p      d    tot
    1  0.104  0.142  0.649  0.896
 
band     7 # energy   12.94430936 # occ.  0.00000000
 
ion      s      p      d    tot
    1  0.280  0.266  0.227  0.773
 
band     8 # energy   21.66169650 # occ.  0.00000000
 
ion      s      p      d    tot
    1  0.000  0.126  0.140  0.266
 
band     9 # energy   22.54213710 # occ.  0.00000000
 
ion      s      p      d    tot
    1  0.029  0.428  0.102  0.559
 
band    10 # energy   24.77924000 # occ.  0.00000000
 
ion      s      p      d    tot
    1  0.023  0.414  0.118  0.555
 
band    11 # energy   31.60071820 # occ.  0.00000000
 
ion      s      p      d    tot
    1  0.003  0.066  0.233  0.303
 
band    12 # energy   32.83659688 # occ.  0.00000000
 
ion      s      p      d    tot
    1  0.009  0.050  0.373  0.432
 

 k-point    15 :   -0.45000000 0.15000000 0.05000000     weight = 0.01200000

band     1 # energy   -1.09218646 # occ.  2.00000000
 
ion      s      p      d    tot
    1  0.183  0.022  0.668  0.873
 
band     2 # energy    0.99409635 # occ.  2.00000000
 
ion      s      p      d    tot
    1  0.000  0.010  0.911  0.921
 
band     3 # energy    1.69142773 # occ.  2.00000000
 
ion      s      p      d    tot
    1  0.000  0.005  0.936  0.941
 
band     4 # energy    2.67610968 # occ.  2.00000000
 
ion      s      p      d    tot
    1  0.003  0.190  0.670  0.864
 
band     5 # energy    4.36659463 # occ.  2.00000000
 
ion      s      p      d    tot
    1  0.001  0.000  0.974  0.975
 
band     6 # energy    7.22683508 # occ. -0.00000028
 
ion      s      p      d    tot
    1  0.016  0.419  0.345  0.780
 
band     7 # energy    9.86041519 # occ. -0.00000000
 
ion      s      p      d    tot
    1  0.496  0.031  0.351  0.878
 
band     8 # energy   21.16684979 # occ.  0.00000000
 
ion      s      p      d    tot
    1  0.006  0.127  0.127  0.259
 
band     9 # energy   22.21582351 # occ.  0.00000000
 
ion      s      p      d    tot
    1  0.036  0.444  0.111  0.591
 
band    10 # energy   23.89607812 # occ.  0.00000000
 
ion      s      p      d    tot
    1  0.002  0.441  0.033  0.476
 
band    11 # energy   32.21527558 # occ.  0.00000000
 
ion      s      p      d    tot
    1  0.010  0.004  0.459  0.473
 
band    12 # energy   33.22139589 # occ.  0.00000000
 
ion      s      p      d    tot
    1  0.002  0.004  0.391  0.397
 

 k-point    16 :   -0.35000000 0.15000000 0.05000000     weight = 0.01200000

band     1 # energy   -1.07011017 # occ.  2.00000000
 
ion      s      p      d    tot
    1  0.212  0.032  0.619  0.863
 
band     2 # energy    1.08414679 # occ.  2.00000000
 
ion      s      p      d    tot
    1  0.000  0.008  0.917  0.925
 
band     3 # energy    1.71889501 # occ.  2.00000000
 
ion      s      p      d    tot
    1  0.000  0.007  0.934  0.941
 
band     4 # energy    2.31421029 # occ.  2.00000000
 
ion      s      p      d    tot
    1  0.043  0.201  0.602  0.845
 
band     5 # energy    4.00699119 # occ.  2.00000000
 
ion      s      p      d    tot
    1  0.001  0.009  0.955  0.964
 
band     6 # energy    6.09324365 # occ.  2.03798600
 
ion      s      p      d    tot
    1  0.121  0.187  0.565  0.873
 
band     7 # energy   11.78018308 # occ. -0.00000000
 
ion      s      p      d    tot
    1  0.325  0.218  0.262  0.805
 
band     8 # energy   20.97741268 # occ.  0.00000000
 
ion      s      p      d    tot
    1  0.014  0.256  0.167  0.437
 
band     9 # energy   22.49476105 # occ.  0.00000000
 
ion      s      p      d    tot
    1  0.026  0.280  0.055  0.361
 
band    10 # energy   24.94114756 # occ.  0.00000000
 
ion      s      p      d    tot
    1  0.002  0.470  0.077  0.549
 
band    11 # energy   31.25969723 # occ.  0.00000000
 
ion      s      p      d    tot
    1  0.012  0.029  0.297  0.337
 
band    12 # energy   32.91120176 # occ.  0.00000000
 
ion      s      p      d    tot
    1  0.000  0.019  0.441  0.461
 

 k-point    17 :   -0.25000000 0.15000000 0.05000000     weight = 0.01200000

band     1 # energy   -1.24382639 # occ.  2.00000000
 
ion      s      p      d    tot
    1  0.371  0.080  0.353  0.804
 
band     2 # energy    1.07230310 # occ.  2.00000000
 
ion      s      p      d    tot
    1  0.056  0.090  0.744  0.889
 
band     3 # energy    1.40976801 # occ.  2.00000000
 
ion      s      p      d    tot
    1  0.010  0.040  0.859  0.909
 
band     4 # energy    1.92750350 # occ.  2.00000000
 
ion      s      p      d    tot
    1  0.004  0.008  0.932  0.943
 
band     5 # energy    3.23386620 # occ.  2.00000000
 
ion      s      p      d    tot
    1  0.007  0.013  0.931  0.951
 
band     6 # energy    4.70174164 # occ.  2.00000000
 
ion      s      p      d    tot
    1  0.062  0.047  0.838  0.947
 
band     7 # energy   15.66969059 # occ.  0.00000000
 
ion      s      p      d    tot
    1  0.201  0.311  0.197  0.709
 
band     8 # energy   21.30844433 # occ.  0.00000000
 
ion      s      p      d    tot
    1  0.014  0.291  0.223  0.528
 
band     9 # energy   23.59032508 # occ.  0.00000000
 
ion      s      p      d    tot
    1  0.021  0.228  0.040  0.289
 
band    10 # energy   27.01790256 # occ.  0.00000000
 
ion      s      p      d    tot
    1  0.012  0.353  0.153  0.518
 
band    11 # energy   29.29831053 # occ.  0.00000000
 
ion      s      p      d    tot
    1  0.001  0.198  0.095  0.294
 
band    12 # energy   31.98162964 # occ.  0.00000000
 
ion      s      p      d    tot
    1  0.007  0.090  0.335  0.432
 

 k-point    18 :   -0.15000000 0.15000000 0.05000000     weight = 0.01200000

band     1 # energy   -2.16343431 # occ.  2.00000000
 
ion      s      p      d    tot
    1  0.574  0.099  0.067  0.740
 
band     2 # energy    0.72140255 # occ.  2.00000000
 
ion      s      p      d    tot
    1  0.003  0.025  0.896  0.924
 
band     3 # energy    1.68829476 # occ.  2.00000000
 
ion      s      p      d    tot
    1  0.002  0.015  0.921  0.937
 
band     4 # energy    2.03819120 # occ.  2.00000000
 
ion      s      p      d    tot
    1  0.000  0.003  0.948  0.951
 
band     5 # energy    2.59543235 # occ.  2.00000000
 
ion      s      p      d    tot
    1  0.006  0.007  0.935  0.948
 
band     6 # energy    3.76434312 # occ.  2.00000000
 
ion      s      p      d    tot
    1  0.017  0.012  0.934  0.963
 
band     7 # energy   19.62933598 # occ.  0.00000000
 
ion      s      p      d    tot
    1  0.120  0.275  0.140  0.535
 
band     8 # energy   21.96807237 # occ.  0.00000000
 
ion      s      p      d    tot
    1  0.006  0.258  0.266  0.530
 
band     9 # energy   25.33768165 # occ.  0.00000000
 
ion      s      p      d    tot
    1  0.008  0.212  0.045  0.265
 
band    10 # energy   26.37442923 # occ.  0.00000000
 
ion      s      p      d    tot
    1  0.016  0.158  0.069  0.243
 
band    11 # energy   30.10918547 # occ.  0.00000000
 
ion      s      p      d    tot
    1  0.017  0.194  0.121  0.332
 
band    12 # energy   30.94974765 # occ.  0.00000000
 
ion      s      p      d    tot
    1  0.011  0.495  0.172  0.678
 

 k-point    19 :   -0.05000000 0.15000000 0.05000000     weight = 0.01200000

band     1 # energy   -3.17647970 # occ.  2.00000000
 
ion      s      p      d    tot
    1  0.659  0.056  0.013  0.728
 
band     2 # energy    0.95358457 # occ.  2.00000000
 
ion      s      p      d    tot
    1  0.001  0.009  0.927  0.937
 
band     3 # energy    1.70501586 # occ.  2.00000000
 
ion      s      p      d    tot
    1  0.001  0.008  0.939  0.949
 
band     4 # energy    1.71676970 # occ.  2.00000000
 
ion      s      p      d    tot
    1  0.000  0.004  0.948  0.952
 
band     5 # energy    2.70782931 # occ.  2.00000000
 
ion      s      p      d    tot
    1  0.002  0.002  0.952  0.956
 
band     6 # energy    3.24415331 # occ.  2.00000000
 
ion      s      p      d    tot
    1  0.001  0.001  0.965  0.967
 
band     7 # energy   21.98501230 # occ.  0.00000000
 
ion      s      p      d    tot
    1  0.054  0.202  0.126  0.381
 
band     8 # energy   22.80362489 # occ.  0.00000000
 
ion      s      p      d    tot
    1  0.012  0.047  0.100  0.159
 
band     9 # energy   25.35359240 # occ.  0.00000000
 
ion      s      p      d    tot
    1  0.000  0.309  0.074  0.383
 
band    10 # energy   27.19038810 # occ.  0.00000000
 
ion      s      p      d    tot
    1  0.000  0.203  0.100  0.302
 
band    11 # energy   29.74079839 # occ.  0.00000000
 
ion      s      p      d    tot
    1  0.025  0.321  0.080  0.427
 
band    12 # energy   32.85716542 # occ.  0.00000000
 
ion      s      p      d    tot
    1  0.004  0.208  0.194  0.406
 

 k-point    20 :    0.25000000 0.25000000 0.05000000     weight = 0.00600000

band     1 # energy   -1.96599316 # occ.  2.00000000
 
ion      s      p      d    tot
    1  0.540  0.111  0.088  0.739
 
band     2 # energy    0.28305382 # occ.  2.00000000
 
ion      s      p      d    tot
    1  0.000  0.002  0.925  0.928
 