<?xml version="1.0" encoding="ISO-8859-1"?>
<modeling>
 <generator>
  <i name="program" type="string">vasp </i>
  <i name="version" type="string">5.4.4.18Apr17-6-g9f103f2a35  </i>
  <i name="subversion" type="string">(build May 18 2018 14:42:58) complex            parallel </i>
  <i name="platform" type="string">LinuxIFC </i>
  <i name="date" type="string">2020 06 30 </i>
  <i name="time" type="string">13:40:51 </i>
 </generator>
 <incar>
  <i type="string" name="SYSTEM"> fcc Au</i>
  <i type="string" name="PREC">normal</i>
  <v name="RWIGS">      1.50300000</v>
  <v type="int" name="KPOINT_BSE">    -1     0     0     0</v>
 </incar>
 <structure name="primitive_cell" >
  <crystal>
   <varray name="basis" >
    <v>       0.00000000       2.00000000       2.00000000 </v>
    <v>       2.00000000       0.00000000       2.00000000 </v>
    <v>       2.00000000       2.00000000       0.00000000 </v>
   </varray>
   <i name="volume">     16.00000000 </i>
   <varray name="rec_basis" >
    <v>      -0.25000000       0.25000000       0.25000000 </v>
    <v>       0.25000000      -0.25000000       0.25000000 </v>
    <v>       0.25000000       0.25000000      -0.25000000 </v>
   </varray>
  </crystal>
  <varray name="positions" >
   <v>       0.00000000       0.00000000       0.00000000 </v>
  </varray>
 </structure>
 <varray name="primitive_index" >
  <v type="int" >        1 </v>
 </varray>
 <kpoints>
  <generation param="Monkhorst-Pack">
   <v type="int" name="divisions">      10       10       10 </v>
   <v name="usershift">      0.00000000       0.00000000       0.00000000 </v>
   <v name="genvec1">      0.10000000       0.00000000       0.00000000 </v>
   <v name="genvec2">      0.00000000       0.10000000       0.00000000 </v>
   <v name="genvec3">      0.00000000       0.00000000       0.10000000 </v>
   <v name="shift">      0.50000000       0.50000000       0.50000000 </v>
  </generation>
  <varray name="kpointlist" >
   <v>       0.05000000       0.05000000       0.05000000 </v>
   <v>       0.15000000       0.05000000       0.05000000 </v>
   <v>       0.25000000       0.05000000       0.05000000 </v>
   <v>       0.35000000       0.05000000       0.05000000 </v>
   <v>       0.45000000       0.05000000       0.05000000 </v>
   <v>      -0.45000000       0.05000000       0.05000000 </v>
   <v>      -0.35000000       0.05000000       0.05000000 </v>
   <v>      -0.25000000       0.05000000       0.05000000 </v>
   <v>      -0.15000000       0.05000000       0.05000000 </v>
   <v>      -0.05000000       0.05000000       0.05000000 </v>
   <v>       0.15000000       0.15000000       0.05000000 </v>
   <v>       0.25000000       0.15000000       0.05000000 </v>
   <v>       0.35000000       0.15000000       0.05000000 </v>
   <v>       0.45000000       0.15000000       0.05000000 </v>
   <v>      -0.45000000       0.15000000       0.05000000 </v>
   <v>      -0.35000000       0.15000000       0.05000000 </v>
   <v>      -0.25000000       0.15000000       0.05000000 </v>
   <v>      -0.15000000       0.15000000       0.05000000 </v>
   <v>      -0.05000000       0.15000000       0.05000000 </v>
   <v>       0.25000000       0.25000000       0.05000000 </v>
   <v>       0.35000000       0.25000000       0.05000000 </v>
   <v>       0.45000000       0.25000000       0.05000000 </v>
   <v>      -0.45000000       0.25000000       0.05000000 </v>
   <v>      -0.35000000       0.25000000       0.05000000 </v>
   <v>      -0.25000000       0.25000000       0.05000000 </v>
   <v>      -0.15000000       0.25000000       0.05000000 </v>
   <v>      -0.05000000       0.25000000       0.05000000 </v>
   <v>       0.35000000       0.35000000       0.05000000 </v>
   <v>       0.45000000       0.35000000       0.05000000 </v>
   <v>      -0.45000000       0.35000000       0.05000000 </v>
   <v>      -0.35000000       0.35000000       0.05000000 </v>
   <v>      -0.25000000       0.35000000       0.05000000 </v>
   <v>      -0.15000000       0.35000000       0.05000000 </v>
   <v>      -0.05000000       0.35000000       0.05000000 </v>
   <v>       0.45000000       0.45000000       0.05000000 </v>
   <v>      -0.45000000       0.45000000       0.05000000 </v>
   <v>      -0.35000000       0.45000000       0.05000000 </v>
   <v>      -0.25000000       0.45000000       0.05000000 </v>
   <v>      -0.15000000       0.45000000       0.05000000 </v>
   <v>      -0.05000000       0.45000000       0.05000000 </v>
   <v>      -0.45000000      -0.45000000       0.05000000 </v>
   <v>      -0.35000000      -0.45000000       0.05000000 </v>
   <v>      -0.25000000      -0.45000000       0.05000000 </v>
   <v>      -0.15000000      -0.45000000       0.05000000 </v>
   <v>      -0.35000000      -0.35000000       0.05000000 </v>
   <v>      -0.25000000      -0.35000000       0.05000000 </v>
   <v>      -0.15000000      -0.35000000       0.05000000 </v>
   <v>      -0.25000000      -0.25000000       0.05000000 </v>
   <v>      -0.15000000      -0.25000000       0.05000000 </v>
   <v>      -0.15000000      -0.15000000       0.05000000 </v>
   <v>       0.15000000       0.15000000       0.15000000 </v>
   <v>       0.25000000       0.15000000       0.15000000 </v>
   <v>       0.35000000       0.15000000       0.15000000 </v>
   <v>       0.45000000       0.15000000       0.15000000 </v>
   <v>      -0.45000000       0.15000000       0.15000000 </v>
   <v>      -0.35000000       0.15000000       0.15000000 </v>
   <v>      -0.25000000       0.15000000       0.15000000 </v>
   <v>      -0.15000000       0.15000000       0.15000000 </v>
   <v>       0.25000000       0.25000000       0.15000000 </v>
   <v>       0.35000000       0.25000000       0.15000000 </v>
   <v>       0.45000000       0.25000000       0.15000000 </v>
   <v>      -0.45000000       0.25000000       0.15000000 </v>
   <v>      -0.35000000       0.25000000       0.15000000 </v>
   <v>      -0.25000000       0.25000000       0.15000000 </v>
   <v>      -0.15000000       0.25000000       0.15000000 </v>
   <v>       0.35000000       0.35000000       0.15000000 </v>
   <v>       0.45000000       0.35000000       0.15000000 </v>
   <v>      -0.45000000       0.35000000       0.15000000 </v>
   <v>      -0.35000000       0.35000000       0.15000000 </v>
   <v>      -0.25000000       0.35000000       0.15000000 </v>
   <v>      -0.15000000       0.35000000       0.15000000 </v>
   <v>       0.45000000       0.45000000       0.15000000 </v>
   <v>      -0.45000000       0.45000000       0.15000000 </v>
   <v>      -0.35000000       0.45000000       0.15000000 </v>
   <v>      -0.25000000       0.45000000       0.15000000 </v>
   <v>      -0.15000000       0.45000000       0.15000000 </v>
   <v>      -0.45000000      -0.45000000       0.15000000 </v>
   <v>      -0.35000000      -0.45000000       0.15000000 </v>
   <v>      -0.25000000      -0.45000000       0.15000000 </v>
   <v>      -0.35000000      -0.35000000       0.15000000 </v>
   <v>      -0.25000000      -0.35000000       0.15000000 </v>
   <v>      -0.25000000      -0.25000000       0.15000000 </v>
   <v>       0.25000000       0.25000000       0.25000000 </v>
   <v>       0.35000000       0.25000000       0.25000000 </v>
   <v>       0.45000000       0.25000000       0.25000000 </v>
   <v>      -0.45000000       0.25000000       0.25000000 </v>
   <v>      -0.35000000       0.25000000       0.25000000 </v>
   <v>      -0.25000000       0.25000000       0.25000000 </v>
   <v>       0.35000000       0.35000000       0.25000000 </v>
   <v>       0.45000000       0.35000000       0.25000000 </v>
   <v>      -0.45000000       0.35000000       0.25000000 </v>
   <v>      -0.35000000       0.35000000       0.25000000 </v>
   <v>      -0.25000000       0.35000000       0.25000000 </v>
   <v>       0.45000000       0.45000000       0.25000000 </v>
   <v>      -0.45000000       0.45000000       0.25000000 </v>
   <v>      -0.35000000       0.45000000       0.25000000 </v>
   <v>      -0.25000000       0.45000000       0.25000000 </v>
   <v>      -0.45000000      -0.45000000       0.25000000 </v>
   <v>      -0.35000000      -0.45000000       0.25000000 </v>
   <v>      -0.35000000      -0.35000000       0.25000000 </v>
   <v>       0.35000000       0.35000000       0.35000000 </v>
   <v>       0.45000000       0.35000000       0.35000000 </v>
   <v>      -0.45000000       0.35000000       0.35000000 </v>
   <v>      -0.35000000       0.35000000       0.35000000 </v>
   <v>       0.45000000       0.45000000       0.35000000 </v>
   <v>      -0.45000000       0.45000000       0.35000000 </v>
   <v>      -0.35000000       0.45000000       0.35000000 </v>
   <v>      -0.45000000      -0.45000000       0.35000000 </v>
   <v>       0.45000000       0.45000000       0.45000000 </v>
   <v>      -0.45000000       0.45000000       0.45000000 </v>
  </varray>
  <varray name="weights" >
   <v>       0.00200000 </v>
   <v>       0.00600000 </v>
   <v>       0.00600000 </v>
   <v>       0.00600000 </v>
   <v>       0.00600000 </v>
   <v>       0.00600000 </v>
   <v>       0.00600000 </v>
   <v>       0.00600000 </v>
   <v>       0.00600000 </v>
   <v>       0.00600000 </v>
   <v>       0.00600000 </v>
   <v>       0.01200000 </v>
   <v>       0.01200000 </v>
   <v>       0.01200000 </v>
   <v>       0.01200000 </v>
   <v>       0.01200000 </v>
   <v>       0.01200000 </v>
   <v>       0.01200000 </v>
   <v>       0.01200000 </v>
   <v>       0.00600000 </v>
   <v>       0.01200000 </v>
   <v>       0.01200000 </v>
   <v>       0.01200000 </v>
   <v>       0.01200000 </v>
   <v>       0.01200000 </v>
   <v>       0.01200000 </v>
   <v>       0.01200000 </v>
   <v>       0.00600000 </v>
   <v>       0.01200000 </v>
   <v>       0.01200000 </v>
   <v>       0.01200000 </v>
   <v>       0.01200000 </v>
   <v>       0.01200000 </v>
   <v>       0.01200000 </v>
   <v>       0.00600000 </v>
   <v>       0.01200000 </v>
   <v>       0.01200000 </v>
   <v>       0.01200000 </v>
   <v>       0.01200000 </v>
   <v>       0.01200000 </v>
   <v>       0.00600000 </v>
   <v>       0.01200000 </v>
   <v>       0.01200000 </v>
   <v>       0.01200000 </v>
   <v>       0.00600000 </v>
   <v>       0.01200000 </v>
   <v>       0.01200000 </v>
   <v>       0.00600000 </v>
   <v>       0.01200000 </v>
   <v>       0.00600000 </v>
   <v>       0.00200000 </v>
   <v>       0.00600000 </v>
   <v>       0.00600000 </v>
   <v>       0.00600000 </v>
   <v>       0.00600000 </v>
   <v>       0.00600000 </v>
   <v>       0.00600000 </v>
   <v>       0.00600000 </v>
   <v>       0.00600000 </v>
   <v>       0.01200000 </v>
   <v>       0.01200000 </v>
   <v>       0.01200000 </v>
   <v>       0.01200000 </v>
   <v>       0.01200000 </v>
   <v>       0.01200000 </v>
   <v>       0.00600000 </v>
   <v>       0.01200000 </v>
   <v>       0.01200000 </v>
   <v>       0.01200000 </v>
   <v>       0.01200000 </v>
   <v>       0.01200000 </v>
   <v>       0.00600000 </v>
   <v>       0.01200000 </v>
   <v>       0.01200000 </v>
   <v>       0.01200000 </v>
   <v>       0.01200000 </v>
   <v>       0.00600000 </v>
   <v>       0.01200000 </v>
   <v>       0.01200000 </v>
   <v>       0.00600000 </v>
   <v>       0.01200000 </v>
   <v>       0.00600000 </v>
   <v>       0.00200000 </v>
   <v>       0.00600000 </v>
   <v>       0.00600000 </v>
   <v>       0.00600000 </v>
   <v>       0.00600000 </v>
   <v>       0.00600000 </v>
   <v>       0.00600000 </v>
   <v>       0.01200000 </v>
   <v>       0.01200000 </v>
   <v>       0.01200000 </v>
   <v>       0.01200000 </v>
   <v>       0.00600000 </v>
   <v>       0.01200000 </v>
   <v>       0.01200000 </v>
   <v>       0.01200000 </v>
   <v>       0.00600000 </v>
   <v>       0.01200000 </v>
   <v>       0.00600000 </v>
   <v>       0.00200000 </v>
   <v>       0.00600000 </v>
   <v>       0.00600000 </v>
   <v>       0.00600000 </v>
   <v>       0.00600000 </v>
   <v>       0.01200000 </v>
   <v>       0.01200000 </v>
   <v>       0.00600000 </v>
   <v>       0.00200000 </v>
   <v>       0.00600000 </v>
  </varray>
 </kpoints>
 <parameters>
  <separator name="general" >
   <i type="string" name="SYSTEM">fcc Au</i>
   <i type="logical" name="LCOMPAT"> F  </i>
  </separator>
  <separator name="electronic" >
   <i type="string" name="PREC">normal</i>
   <i name="ENMAX">    229.86900000</i>
   <i name="ENAUG">    356.67000000</i>
   <i name="EDIFF">      0.00010000</i>
   <i type="int" name="IALGO">    38</i>
   <i type="int" name="IWAVPR">    10</i>
   <i type="int" name="NBANDS">    12</i>
   <i name="NELECT">     11.00000000</i>
   <i type="int" name="TURBO">     0</i>
   <i type="int" name="IRESTART">     0</i>
   <i type="int" name="NREBOOT">     0</i>
   <i type="int" name="NMIN">     0</i>
   <i name="EREF">      0.00000000</i>
   <separator name="electronic smearing" >
    <i type="int" name="ISMEAR">     1</i>
    <i name="SIGMA">      0.20000000</i>
    <i name="KSPACING">      0.50000000</i>
    <i type="logical" name="KGAMMA"> T  </i>
   </separator>
   <separator name="electronic projectors" >
    <i type="logical" name="LREAL"> F  </i>
    <v name="ROPT">      0.00000000</v>
    <i type="int" name="LMAXPAW">  -100</i>
    <i type="int" name="LMAXMIX">     2</i>
    <i type="logical" name="NLSPLINE"> F  </i>
   </separator>
   <separator name="electronic startup" >
    <i type="int" name="ISTART">     0</i>
    <i type="int" name="ICHARG">     2</i>
    <i type="int" name="INIWAV">     1</i>
   </separator>
   <separator name="electronic spin" >
    <i type="int" name="ISPIN">     1</i>
    <i type="logical" name="LNONCOLLINEAR"> F  </i>
    <v name="MAGMOM">      1.00000000</v>
    <i name="NUPDOWN">     -1.00000000</i>
    <i type="logical" name="LSORBIT"> F  </i>
    <v name="SAXIS">      0.00000000      0.00000000      1.00000000</v>
    <i type="logical" name="LSPIRAL"> F  </i>
    <v name="QSPIRAL">      0.00000000      0.00000000      0.00000000</v>
    <i type="logical" name="LZEROZ"> F  </i>
   </separator>
   <separator name="electronic exchange-correlation" >
    <i type="logical" name="LASPH"> F  </i>
    <i type="logical" name="LMETAGGA"> F  </i>
   </separator>
   <separator name="electronic convergence" >
    <i type="int" name="NELM">    60</i>
    <i type="int" name="NELMDL">    -5</i>
    <i type="int" name="NELMIN">     2</i>
    <i name="ENINI">    229.86900000</i>
    <separator name="electronic convergence detail" >
     <i type="logical" name="LDIAG"> T  </i>
     <i type="logical" name="LSUBROT"> F  </i>
     <i name="WEIMIN">      0.00000000</i>
     <i name="EBREAK">      0.00000208</i>
     <i name="DEPER">      0.30000000</i>
     <i type="int" name="NRMM">     4</i>
     <i name="TIME">      0.40000000</i>
    </separator>
   </separator>
   <separator name="electronic mixer" >
    <i name="AMIX">      0.40000000</i>
    <i name="BMIX">      1.00000000</i>
    <i name="AMIN">      0.10000000</i>
    <i name="AMIX_MAG">      1.60000000</i>
    <i name="BMIX_MAG">      1.00000000</i>
    <separator name="electronic mixer details" >
     <i type="int" name="IMIX">     4</i>
     <i type="logical" name="MIXFIRST"> F  </i>
     <i type="int" name="MAXMIX">   -45</i>
     <i name="WC">    100.00000000</i>
     <i type="int" name="INIMIX">     1</i>
     <i type="int" name="MIXPRE">     1</i>
     <i type="int" name="MREMOVE">     5</i>
    </separator>
   </separator>
   <separator name="electronic dipolcorrection" >
    <i type="logical" name="LDIPOL"> F  </i>
    <i type="logical" name="LMONO"> F  </i>
    <i type="int" name="IDIPOL">     0</i>
    <i name="EPSILON">      1.00000000</i>
    <v name="DIPOL">   -100.00000000   -100.00000000   -100.00000000</v>
    <i name="EFIELD">      0.00000000</i>
   </separator>
  </separator>
  <separator name="grids" >
   <i type="int" name="NGX">    10</i>
   <i type="int" name="NGY">    10</i>
   <i type="int" name="NGZ">    10</i>
   <i type="int" name="NGXF">    20</i>
   <i type="int" name="NGYF">    20</i>
   <i type="int" name="NGZF">    20</i>
   <i type="logical" name="ADDGRID"> F  </i>
  </separator>
  <separator name="ionic" >
   <i type="int" name="NSW">     0</i>
   <i type="int" name="IBRION">    -1</i>
   <i type="int" name="MDALGO">     0</i>
   <i type="int" name="ISIF">     2</i>
   <i name="PSTRESS">      0.00000000</i>
   <i name="EDIFFG">      0.00100000</i>
   <i type="int" name="NFREE">     0</i>
   <i name="POTIM">      0.50000000</i>
   <i name="SMASS">     -3.00000000</i>
   <i name="SCALEE">      1.00000000</i>
  </separator>
  <separator name="ionic md" >
   <i name="TEBEG">      0.00010000</i>
   <i name="TEEND">      0.00010000</i>
   <i type="int" name="NBLOCK">     1</i>
   <i type="int" name="KBLOCK">     1</i>
   <i type="int" name="NPACO">   256</i>
   <i name="APACO">     16.00000000</i>
  </separator>
  <separator name="symmetry" >
   <i type="int" name="ISYM">     2</i>
   <i name="SYMPREC">      0.00001000</i>
  </separator>
  <separator name="dos" >
   <i type="int" name="LORBIT">     0</i>
   <v name="RWIGS">      1.50300000</v>
   <i type="int" name="NEDOS">   301</i>
   <i name="EMIN">     10.00000000</i>
   <i name="EMAX">    -10.00000000</i>
   <i name="EFERMI">      0.00000000</i>
  </separator>
  <separator name="writing" >
   <i type="int" name="NWRITE">     2</i>
   <i type="logical" name="LWAVE"> T  </i>
   <i type="logical" name="LDOWNSAMPLE"> F  </i>
   <i type="logical" name="LCHARG"> T  </i>
   <i type="logical" name="LPARD"> F  </i>
   <i type="logical" name="LVTOT"> F  </i>
   <i type="logical" name="LVHAR"> F  </i>
   <i type="logical" name="LELF"> F  </i>
   <i type="logical" name="LOPTICS"> F  </i>
   <v name="STM">      0.00000000      0.00000000      0.00000000      0.00000000      0.00000000      0.00000000      0.00000000</v>
  </separator>
  <separator name="performance" >
   <i type="int" name="NPAR">     4</i>
   <i type="int" name="NSIM">     4</i>
   <i type="int" name="NBLK">    -1</i>
   <i type="logical" name="LPLANE"> T  </i>
   <i type="logical" name="LSCALAPACK"> T  </i>
   <i type="logical" name="LSCAAWARE"> F  </i>
   <i type="logical" name="LSCALU"> F  </i>
   <i type="logical" name="LASYNC"> F  </i>
   <i type="logical" name="LORBITALREAL"> F  </i>
  </separator>
  <separator name="miscellaneous" >
   <i type="int" name="IDIOT">     3</i>
   <i type="int" name="ISPECIAL">     0</i>
   <i type="logical" name="LMUSIC"> F  </i>
   <v name="POMASS">    196.96600000</v>
   <v name="DARWINR">      0.00000000</v>
   <v name="DARWINV">      1.00000000</v>
   <i type="logical" name="LCORR"> T  </i>
  </separator>
  <i type="logical" name="GGA_COMPAT"> T  </i>
  <i type="logical" name="LBERRY"> F  </i>
  <i type="int" name="ICORELEVEL">     0</i>
  <i type="logical" name="LDAU"> F  </i>
  <i type="int" name="I_CONSTRAINED_M">     0</i>
  <separator name="electronic exchange-correlation" >
   <i type="string" name="GGA">--</i>
   <i type="int" name="VOSKOWN">     0</i>
   <i type="logical" name="LHFCALC"> F  </i>
   <i type="string" name="PRECFOCK"></i>
   <i type="logical" name="LSYMGRAD"> F  </i>
   <i type="logical" name="LHFONE"> F  </i>
   <i type="logical" name="LRHFCALC"> F  </i>
   <i type="logical" name="LTHOMAS"> F  </i>
   <i type="logical" name="LMODELHF"> F  </i>
   <i name="ENCUT4O">     -1.00000000</i>
   <i type="int" name="EXXOEP">     0</i>
   <i type="int" name="FOURORBIT">     0</i>
   <i name="AEXX">      0.00000000</i>
   <i name="HFALPHA">      0.00000000</i>
   <i name="MCALPHA">      0.00000000</i>
   <i name="ALDAX">      1.00000000</i>
   <i name="AGGAX">      1.00000000</i>
   <i name="ALDAC">      1.00000000</i>
   <i name="AGGAC">      1.00000000</i>
   <i type="int" name="NKREDX">     1</i>
   <i type="int" name="NKREDY">     1</i>
   <i type="int" name="NKREDZ">     1</i>
   <i type="logical" name="SHIFTRED"> F  </i>
   <i type="logical" name="ODDONLY"> F  </i>
   <i type="logical" name="EVENONLY"> F  </i>
   <i type="int" name="LMAXFOCK">     0</i>
   <i type="int" name="NMAXFOCKAE">     0</i>
   <i type="logical" name="LFOCKAEDFT"> F  </i>
   <i name="HFSCREEN">      0.00000000</i>
   <i name="HFSCREENC">      0.00000000</i>
   <i type="int" name="NBANDSGWLOW">     0</i>
  </separator>
  <separator name="vdW DFT" >
   <i type="logical" name="LUSE_VDW"> F  </i>
   <i name="Zab_VDW">     -0.84910000</i>
   <i name="PARAM1">      0.12340000</i>
   <i name="PARAM2">      1.00000000</i>
   <i name="PARAM3">      0.00000000</i>
  </separator>
  <separator name="model GW" >
   <i type="int" name="MODEL_GW">     0</i>
   <i name="MODEL_EPS0">      9.60000000</i>
   <i name="MODEL_ALPHA">      1.00000000</i>
  </separator>
  <separator name="linear response parameters" >
   <i type="logical" name="LEPSILON"> F  </i>
   <i type="logical" name="LRPA"> F  </i>
   <i type="logical" name="LNABLA"> F  </i>
   <i type="logical" name="LVEL"> F  </i>
   <i type="int" name="KINTER">     0</i>
   <i name="CSHIFT">      0.10000000</i>
   <i name="OMEGAMAX">     -1.00000000</i>
   <i name="DEG_THRESHOLD">      0.00200000</i>
   <i name="RTIME">     -0.10000000</i>
   <i name="WPLASMAI">      0.00000000</i>
   <v name="DFIELD">      0.00000000      0.00000000      0.00000000</v>
   <v name="WPLASMA">      0.00000000      0.00000000      0.00000000      0.00000000      0.00000000      0.00000000      0.00000000      0.00000000      0.00000000</v>
  </separator>
  <separator name="orbital magnetization" >
   <i type="logical" name="NUCIND"> F  </i>
   <v name="MAGPOS">      0.00000000      0.00000000      0.00000000</v>
   <i type="logical" name="LNICSALL"> T  </i>
   <i type="logical" name="ORBITALMAG"> F  </i>
   <i type="logical" name="LMAGBLOCH"> F  </i>
   <i type="logical" name="LCHIMAG"> F  </i>
   <i type="logical" name="LGAUGE"> T  </i>
   <i type="int" name="MAGATOM">     0</i>
   <v name="MAGDIPOL">      0.00000000      0.00000000      0.00000000</v>
   <v name="AVECCONST">      0.00000000      0.00000000      0.00000000</v>
  </separator>
  <separator name="response functions" >
   <i type="logical" name="LADDER"> F  </i>
   <i type="logical" name="LRPAFORCE"> F  </i>
   <i type="logical" name="LFXC"> F  </i>
   <i type="logical" name="LHARTREE"> T  </i>
   <i type="int" name="IBSE">     0</i>
   <v type="int" name="KPOINT">    -1     0     0     0</v>
   <i type="logical" name="LTCTE"> F  </i>
   <i type="logical" name="LTETE"> F  </i>
   <i type="logical" name="LTRIPLET"> F  </i>
   <i type="logical" name="LFXCEPS"> F  </i>
   <i type="logical" name="LFXHEG"> F  </i>
   <i type="int" name="NATURALO">     2</i>
   <i type="logical" name="L2ORDER"> F  </i>
   <i type="logical" name="LMP2LT"> F  </i>
   <i type="logical" name="LUSEW"> F  </i>
   <i name="ENCUTGW">     -2.00000000</i>
   <i name="ENCUTGWSOFT">     -2.00000000</i>
   <i name="ENCUTLF">     -1.00000000</i>
   <i type="int" name="LMAXMP2">    -1</i>
   <i name="SCISSOR">      0.00000000</i>
   <i type="int" name="NOMEGA">     0</i>
   <i type="int" name="NOMEGAR">     0</i>
   <i type="int" name="NBANDSGW">    -1</i>
   <i type="int" name="NBANDSO">    -1</i>
   <i type="int" name="NBANDSV">    -1</i>
   <i type="int" name="NELM">     1</i>
   <i type="int" name="NELMHF">     1</i>
   <i type="int" name="DIM">     3</i>
   <i type="int" name="ANTIRES">     0</i>
   <i name="OMEGAMAX">    -30.00000000</i>
   <i name="OMEGAMIN">    -30.00000000</i>
   <i name="OMEGATL">   -200.00000000</i>
   <i type="int" name="OMEGAGRID">   140</i>
   <i name="CSHIFT">     -0.10000000</i>
   <i type="logical" name="SELFENERGY"> F  </i>
   <i type="logical" name="LSPECTRAL"> F  </i>
   <i type="logical" name="LSPECTRALGW"> F  </i>
   <i type="logical" name="LSINGLES"> F  </i>
   <i type="logical" name="LFERMIGW"> F  </i>
   <i type="logical" name="ODDONLYGW"> F  </i>
   <i type="logical" name="EVENONLYGW"> F  </i>
   <i type="int" name="NKREDLFX">     1</i>
   <i type="int" name="NKREDLFY">     1</i>
   <i type="int" name="NKREDLFZ">     1</i>
   <i type="int" name="MAXMEM">  2800</i>
   <i type="int" name="TELESCOPE">     0</i>
   <i type="int" name="TAUPAR">     1</i>
   <i type="int" name="OMEGAPAR">    -1</i>
   <i name="LAMBDA">      1.00000000</i>
  </separator>
  <separator name="External order field" >
   <i name="OFIELD_KAPPA">      0.00000000</i>
   <v name="OFIELD_K">      0.00000000      0.00000000      0.00000000</v>
   <i name="OFIELD_Q6_NEAR">      0.00000000</i>
   <i name="OFIELD_Q6_FAR">      0.00000000</i>
   <i name="OFIELD_A">      0.00000000</i>
  </separator>
 </parameters>
 <atominfo>
  <atoms>       1 </atoms>
  <types>       1 </types>
  <array name="atoms" >
   <dimension dim="1">ion</dimension>
   <field type="string">element</field>
   <field type="int">atomtype</field>
   <set>
    <rc><c>Au</c><c>   1</c></rc>
   </set>
  </array>
  <array name="atomtypes" >
   <dimension dim="1">type</dimension>
   <field type="int">atomspertype</field>
   <field type="string">element</field>
   <field>mass</field>
   <field>valence</field>
   <field type="string">pseudopotential</field>
   <set>
    <rc><c>   1</c><c>Au</c><c>    196.96600000</c><c>     11.00000000</c><c> PAW Au 04Feb1998                       </c></rc>
   </set>
  </array>
 </atominfo>
 <structure name="initialpos" >
  <crystal>
   <varray name="basis" >
    <v>       0.00000000       2.00000000       2.00000000 </v>
    <v>       2.00000000       0.00000000       2.00000000 </v>
    <v>       2.00000000       2.00000000       0.00000000 </v>
   </varray>
   <i name="volume">     16.00000000 </i>
   <varray name="rec_basis" >
    <v>      -0.25000000       0.25000000       0.25000000 </v>
    <v>       0.25000000      -0.25000000       0.25000000 </v>
    <v>       0.25000000       0.25000000      -0.25000000 </v>
   </varray>
  </crystal>
  <varray name="positions" >
   <v>       0.00000000       0.00000000       0.00000000 </v>
  </varray>
 </structure>
 <calculation>
  <scstep>
   <time name="dav">    0.25    0.26</time>
   <time name="total">    0.26    0.26</time>
   <energy>
    <i name="alphaZ">    114.86745875 </i>
    <i name="ewald">   -998.56820046 </i>
    <i name="hartreedc">   -114.90329668 </i>
    <i name="XCdc">     16.50910881 </i>
    <i name="pawpsdc">    746.10209728 </i>
    <i name="pawaedc">   -725.46159323 </i>
    <i name="eentropy">      0.00058340 </i>
    <i name="bandstr">     62.58155468 </i>
    <i name="atom">    929.39614979 </i>
    <i name="e_fr_energy">     30.52386235 </i>
    <i name="e_wo_entrp">     30.52327895 </i>
    <i name="e_0_energy">     30.52366788 </i>
   </energy>
  </scstep>
  <scstep>
   <time name="dav">    0.21    0.21</time>
   <time name="total">    0.21    0.21</time>
   <energy>
    <i name="e_fr_energy">     -4.36843984 </i>
    <i name="e_wo_entrp">     -4.36766952 </i>
    <i name="e_0_energy">     -4.36818306 </i>
   </energy>
  </scstep>
  <scstep>
   <time name="dav">    0.23    0.24</time>
   <time name="total">    0.24    0.24</time>
   <energy>
    <i name="e_fr_energy">     -4.69129571 </i>
    <i name="e_wo_entrp">     -4.69057136 </i>
    <i name="e_0_energy">     -4.69105426 </i>
   </energy>
  </scstep>
  <scstep>
   <time name="dav">    0.22    0.22</time>
   <time name="total">    0.22    0.22</time>
   <energy>
    <i name="e_fr_energy">     -4.69210235 </i>
    <i name="e_wo_entrp">     -4.69137840 </i>
    <i name="e_0_energy">     -4.69186103 </i>
   </energy>
  </scstep>
  <scstep>
   <time name="dav">    0.23    0.23</time>
   <time name="total">    0.23    0.24</time>
   <energy>
    <i name="e_fr_energy">     -4.69210758 </i>
    <i name="e_wo_entrp">     -4.69138362 </i>
    <i name="e_0_energy">     -4.69186626 </i>
   </energy>
  </scstep>
  <scstep>
   <time name="dav">    0.23    0.24</time>
   <time name="total">    0.24    0.25</time>
   <energy>
    <i name="e_fr_energy">     -4.40707942 </i>
    <i name="e_wo_entrp">     -4.40722411 </i>
    <i name="e_0_energy">     -4.40712765 </i>
   </energy>
  </scstep>
  <scstep>
   <time name="dav">    0.24    0.24</time>
   <time name="total">    0.25    0.25</time>
   <energy>
    <i name="e_fr_energy">     -4.37881329 </i>
    <i name="e_wo_entrp">     -4.37936693 </i>
    <i name="e_0_energy">     -4.37899784 </i>
   </energy>
  </scstep>
  <scstep>
   <time name="dav">    0.24    0.25</time>
   <time name="total">    0.25    0.26</time>
   <energy>
    <i name="e_fr_energy">     -4.37351663 </i>
    <i name="e_wo_entrp">     -4.37410501 </i>
    <i name="e_0_energy">     -4.37371275 </i>
   </energy>
  </scstep>
  <scstep>
   <time name="dav">    0.18    0.19</time>
   <time name="total">    0.18    0.19</time>
   <energy>
    <i name="alphaZ">    114.86745875 </i>
    <i name="ewald">   -998.56820046 </i>
    <i name="hartreedc">   -103.79969763 </i>
    <i name="XCdc">     15.93621002 </i>
    <i name="pawpsdc">    762.65456453 </i>
    <i name="pawaedc">   -745.14623288 </i>
    <i name="eentropy">      0.00059116 </i>
    <i name="bandstr">     20.28564391 </i>
    <i name="atom">    929.39614979 </i>
    <i name="e_fr_energy">     -4.37351282 </i>
    <i name="e_wo_entrp">     -4.37410398 </i>
    <i name="e_0_energy">     -4.37370987 </i>
   </energy>
  </scstep>
  <structure>
   <crystal>
    <varray name="basis" >
     <v>       0.00000000       2.00000000       2.00000000 </v>
     <v>       2.00000000       0.00000000       2.00000000 </v>
     <v>       2.00000000       2.00000000       0.00000000 </v>
    </varray>
    <i name="volume">     16.00000000 </i>
    <varray name="rec_basis" >
     <v>      -0.25000000       0.25000000       0.25000000 </v>
     <v>       0.25000000      -0.25000000       0.25000000 </v>
     <v>       0.25000000       0.25000000      -0.25000000 </v>
    </varray>
   </crystal>
   <varray name="positions" >
    <v>       0.00000000       0.00000000       0.00000000 </v>
   </varray>
  </structure>
  <varray name="forces" >
   <v>      -0.00000000      -0.00000000       0.00000000 </v>
  </varray>
  <varray name="stress" >
   <v>      62.31605067      -0.00000000      -0.00000000 </v>
   <v>       0.00000000      62.31605067       0.00000000 </v>
   <v>      -0.00000000       0.00000000      62.31605067 </v>
  </varray>
  <energy>
   <i name="e_fr_energy">     -4.37351282 </i>
   <i name="e_wo_entrp">     -4.37370987 </i>
   <i name="e_0_energy">      0.00059116 </i>
  </energy>
  <time name="totalsc">    2.21    2.26</time>
  <eigenvalues>
   <array>
    <dimension dim="1">band</dimension>
    <dimension dim="2">kpoint</dimension>
    <dimension dim="3">spin</dimension>
    <field>eigene</field>
    <field>occ</field>
    <set>
     <set comment="spin 1">
      <set comment="kpoint 1">
       <r>   -4.1143    1.0000 </r>
       <r>    1.3110    1.0000 </r>
       <r>    1.3763    1.0000 </r>
       <r>    1.3763    1.0000 </r>
       <r>    3.0472    1.0000 </r>
       <r>    3.0472    1.0000 </r>
       <r>   21.8471    0.0000 </r>
       <r>   25.2737    0.0000 </r>
       <r>   26.0650    0.0000 </r>
       <r>   26.0650    0.0000 </r>
       <r>   31.0312    0.0000 </r>
       <r>   34.5393    0.0000 </r>
      </set>
      <set comment="kpoint 2">
       <r>   -3.6337    1.0000 </r>
       <r>    1.1392    1.0000 </r>
       <r>    1.5295    1.0000 </r>
       <r>    1.5656    1.0000 </r>
       <r>    2.8822    1.0000 </r>
       <r>    3.1025    1.0000 </r>
       <r>   22.2926    0.0000 </r>
       <r>   23.2735    0.0000 </r>
       <r>   25.7753    0.0000 </r>
       <r>   27.0535    0.0000 </r>
       <r>   30.7015    0.0000 </r>
       <r>   33.4205    0.0000 </r>
      </set>
      <set comment="kpoint 3">
       <r>   -2.6004    1.0000 </r>
       <r>    1.0034    1.0000 </r>
       <r>    1.6974    1.0000 </r>
       <r>    1.7224    1.0000 </r>
       <r>    2.8891    1.0000 </r>
       <r>    3.3388    1.0000 </r>
       <r>   19.4914    0.0000 </r>
       <r>   22.9361    0.0000 </r>
       <r>   26.1016    0.0000 </r>
       <r>   28.4763    0.0000 </r>
       <r>   28.5347    0.0000 </r>
       <r>   31.1611    0.0000 </r>
      </set>
      <set comment="kpoint 4">
       <r>   -1.6959    1.0000 </r>
       <r>    1.4957    1.0000 </r>
       <r>    1.5937    1.0000 </r>
       <r>    1.7188    1.0000 </r>
       <r>    3.4306    1.0000 </r>
       <r>    3.9689    1.0000 </r>
       <r>   15.4278    0.0000 </r>
       <r>   22.1982    0.0000 </r>
       <r>   25.1668    0.0000 </r>
       <r>   27.4777    0.0000 </r>
       <r>   29.6809    0.0000 </r>
       <r>   30.9114    0.0000 </r>
      </set>
      <set comment="kpoint 5">
       <r>   -1.4850    1.0000 </r>
       <r>    1.3290    1.0000 </r>
       <r>    1.4077    1.0000 </r>
       <r>    3.3286    1.0000 </r>
       <r>    4.0996    1.0000 </r>
       <r>    4.8689    1.0000 </r>
       <r>   11.5691   -0.0000 </r>
       <r>   21.3543    0.0000 </r>
       <r>   24.1456    0.0000 </r>
       <r>   25.2915    0.0000 </r>
       <r>   31.6819    0.0000 </r>
       <r>   32.0512    0.0000 </r>
      </set>
      <set comment="kpoint 6">
       <r>   -1.4848    1.0000 </r>
       <r>    1.2548    1.0000 </r>
       <r>    1.3628    1.0000 </r>
       <r>    3.8200    1.0000 </r>
       <r>    4.4219    1.0000 </r>
       <r>    5.6665    1.0000 </r>
       <r>    9.8987   -0.0000 </r>
       <r>   21.1230    0.0000 </r>
       <r>   24.1839    0.0000 </r>
       <r>   24.2968    0.0000 </r>
       <r>   32.2659    0.0000 </r>
       <r>   32.3532    0.0000 </r>
      </set>
      <set comment="kpoint 7">
       <r>   -1.5076    1.0000 </r>
       <r>    1.3625    1.0000 </r>
       <r>    1.4858    1.0000 </r>
       <r>    2.7184    1.0000 </r>
       <r>    4.1932    1.0000 </r>
       <r>    4.2899    1.0000 </r>
       <r>   12.7697    0.0000 </r>
       <r>   21.6036    0.0000 </r>
       <r>   24.6544    0.0000 </r>
       <r>   25.5266    0.0000 </r>
       <r>   31.6324    0.0000 </r>
       <r>   31.7341    0.0000 </r>
      </set>
      <set comment="kpoint 8">
       <r>   -1.9209    1.0000 </r>
       <r>    1.2709    1.0000 </r>
       <r>    1.6080    1.0000 </r>
       <r>    1.6781    1.0000 </r>
       <r>    3.3269    1.0000 </r>
       <r>    3.6301    1.0000 </r>
       <r>   16.7992    0.0000 </r>
       <r>   22.5887    0.0000 </r>
       <r>   25.7114    0.0000 </r>
       <r>   27.6020    0.0000 </r>
       <r>   29.3836    0.0000 </r>
       <r>   31.1824    0.0000 </r>
      </set>
      <set comment="kpoint 9">
       <r>   -2.9787    1.0000 </r>
       <r>    0.9937    1.0000 </r>
       <r>    1.6890    1.0000 </r>
       <r>    1.7034    1.0000 </r>
       <r>    2.8421    1.0000 </r>
       <r>    3.2038    1.0000 </r>
       <r>   20.7689    0.0000 </r>
       <r>   22.9926    0.0000 </r>
       <r>   26.0962    0.0000 </r>
       <r>   27.5538    0.0000 </r>
       <r>   29.3672    0.0000 </r>
       <r>   31.9443    0.0000 </r>
      </set>
      <set comment="kpoint 10">
       <r>   -3.8697    1.0000 </r>
       <r>    1.1900    1.0000 </r>
       <r>    1.4824    1.0000 </r>
       <r>    1.4885    1.0000 </r>
       <r>    2.9088    1.0000 </r>
       <r>    3.1115    1.0000 </r>
       <r>   22.1297    0.0000 </r>
       <r>   24.3469    0.0000 </r>
       <r>   25.8618    0.0000 </r>
       <r>   26.2178    0.0000 </r>
       <r>   31.8111    0.0000 </r>
       <r>   33.6956    0.0000 </r>
      </set>
      <set comment="kpoint 11">
       <r>   -3.3954    1.0000 </r>
       <r>    0.9507    1.0000 </r>
       <r>    1.7038    1.0000 </r>
       <r>    1.7080    1.0000 </r>
       <r>    2.6642    1.0000 </r>
       <r>    3.2345    1.0000 </r>
       <r>   22.6183    0.0000 </r>
       <r>   23.4617    0.0000 </r>
       <r>   25.2809    0.0000 </r>
       <r>   25.8568    0.0000 </r>
       <r>   31.2345    0.0000 </r>
       <r>   32.7772    0.0000 </r>
      </set>
      <set comment="kpoint 12">
       <r>   -2.5352    1.0000 </r>
       <r>    0.6750    1.0000 </r>
       <r>    1.8069    1.0000 </r>
       <r>    2.0131    1.0000 </r>
       <r>    2.6004    1.0000 </r>
       <r>    3.4787    1.0000 </r>
       <r>   21.0353    0.0000 </r>
       <r>   22.8216    0.0000 </r>
       <r>   24.8045    0.0000 </r>
       <r>   26.0881    0.0000 </r>
       <r>   29.1934    0.0000 </r>
       <r>   31.9111    0.0000 </r>
      </set>
      <set comment="kpoint 13">
       <r>   -1.4913    1.0000 </r>
       <r>    0.7648    1.0000 </r>
       <r>    1.4706    1.0000 </r>
       <r>    2.0225    1.0000 </r>
       <r>    3.3289    1.0000 </r>
       <r>    4.1142    1.0000 </r>
       <r>   17.0344    0.0000 </r>
       <r>   22.2942    0.0000 </r>
       <r>   23.7411    0.0000 </r>
       <r>   26.1100    0.0000 </r>
       <r>   29.8322    0.0000 </r>
       <r>   31.5494    0.0000 </r>
      </set>
      <set comment="kpoint 14">
       <r>   -1.1081    1.0000 </r>
       <r>    1.1359    1.0000 </r>
       <r>    1.7187    1.0000 </r>
       <r>    1.8949    1.0000 </r>
       <r>    4.1682    1.0000 </r>
       <r>    5.3533    1.0000 </r>
       <r>   12.9443    0.0000 </r>
       <r>   21.6617    0.0000 </r>
       <r>   22.5421    0.0000 </r>
       <r>   24.7792    0.0000 </r>
       <r>   31.6007    0.0000 </r>
       <r>   32.8366    0.0000 </r>
      </set>
      <set comment="kpoint 15">
       <r>   -1.0922    1.0000 </r>
       <r>    0.9941    1.0000 </r>
       <r>    1.6914    1.0000 </r>
       <r>    2.6761    1.0000 </r>
       <r>    4.3666    1.0000 </r>
       <r>    7.2268   -0.0000 </r>
       <r>    9.8604   -0.0000 </r>
       <r>   21.1668    0.0000 </r>
       <r>   22.2158    0.0000 </r>
       <r>   23.8961    0.0000 </r>
       <r>   32.2153    0.0000 </r>
       <r>   33.2214    0.0000 </r>
      </set>
      <set comment="kpoint 16">
       <r>   -1.0701    1.0000 </r>
       <r>    1.0841    1.0000 </r>
       <r>    1.7189    1.0000 </r>
       <r>    2.3142    1.0000 </r>
       <r>    4.0070    1.0000 </r>
       <r>    6.0932    1.0190 </r>
       <r>   11.7802   -0.0000 </r>
       <r>   20.9774    0.0000 </r>
       <r>   22.4948    0.0000 </r>
       <r>   24.9411    0.0000 </r>
       <r>   31.2597    0.0000 </r>
       <r>   32.9112    0.0000 </r>
      </set>
      <set comment="kpoint 17">
       <r>   -1.2438    1.0000 </r>
       <r>    1.0723    1.0000 </r>
       <r>    1.4098    1.0000 </r>
       <r>    1.9275    1.0000 </r>
       <r>    3.2339    1.0000 </r>
       <r>    4.7017    1.0000 </r>
       <r>   15.6697    0.0000 </r>
       <r>   21.3084    0.0000 </r>
       <r>   23.5903    0.0000 </r>
       <r>   27.0179    0.0000 </r>
       <r>   29.2983    0.0000 </r>
       <r>   31.9816    0.0000 </r>
      </set>
      <set comment="kpoint 18">
       <r>   -2.1634    1.0000 </r>
       <r>    0.7214    1.0000 </r>
       <r>    1.6883    1.0000 </r>
       <r>    2.0382    1.0000 </r>
       <r>    2.5954    1.0000 </r>
       <r>    3.7643    1.0000 </r>
       <r>   19.6293    0.0000 </r>
       <r>   21.9681    0.0000 </r>
       <r>   25.3377    0.0000 </r>
       <r>   26.3744    0.0000 </r>
       <r>   30.1092    0.0000 </r>
       <r>   30.9497    0.0000 </r>
      </set>
      <set comment="kpoint 19">
       <r>   -3.1765    1.0000 </r>
       <r>    0.9536    1.0000 </r>
       <r>    1.7050    1.0000 </r>
       <r>    1.7168    1.0000 </r>
       <r>    2.7078    1.0000 </r>
       <r>    3.2442    1.0000 </r>
       <r>   21.9850    0.0000 </r>
       <r>   22.8036    0.0000 </r>
       <r>   25.3536    0.0000 </r>
       <r>   27.1904    0.0000 </r>
       <r>   29.7408    0.0000 </r>
       <r>   32.8572    0.0000 </r>
      </set>
      <set comment="kpoint 20">
       <r>   -1.9660    1.0000 </r>
       <r>    0.2831    1.0000 </r>
       <r>    1.9712    1.0000 </r>
       <r>    2.4343    1.0000 </r>
       <r>    2.6426    1.0000 </r>
       <r>    3.6136    1.0000 </r>
       <r>   21.5510    0.0000 </r>
       <r>   22.7411    0.0000 </r>
       <r>   23.6572    0.0000 </r>
       <r>   24.5825    0.0000 </r>
       <r>   26.2738    0.0000 </r>
       <r>   33.2596    0.0000 </r>
      </set>
      <set comment="kpoint 21">
       <r>   -1.1436    1.0000 </r>
       <r>    0.0356    1.0000 </r>
       <r>    1.6842    1.0000 </r>
       <r>    2.8180    1.0000 </r>
       <r>    3.3664    1.0000 </r>
       <r>    4.1400    1.0000 </r>
       <r>   18.7924    0.0000 </r>
       <r>   20.7904    0.0000 </r>
       <r>   22.4180    0.0000 </r>
       <r>   25.1985    0.0000 </r>
       <r>   26.6237    0.0000 </r>
       <r>   33.3580    0.0000 </r>
      </set>
      <set comment="kpoint 22">
       <r>   -0.6717    1.0000 </r>
       <r>    0.3138    1.0000 </r>
       <r>    1.4140    1.0000 </r>
       <r>    2.6685    1.0000 </r>
       <r>    4.2667    1.0000 </r>
       <r>    5.6519    1.0000 </r>
       <r>   14.5928    0.0000 </r>
       <r>   20.1056    0.0000 </r>
       <r>   20.6413    0.0000 </r>
       <r>   24.7575    0.0000 </r>
       <r>   29.8975    0.0000 </r>
       <r>   33.4091    0.0000 </r>
      </set>
      <set comment="kpoint 23">
       <r>   -0.5473    1.0000 </r>
       <r>    0.5966    1.0000 </r>
       <r>    1.6273    1.0000 </r>
       <r>    2.4471    1.0000 </r>
       <r>    4.4056    1.0000 </r>
       <r>    8.2178   -0.0000 </r>
       <r>   10.8916   -0.0000 </r>
       <r>   18.7942    0.0000 </r>
       <r>   20.7113    0.0000 </r>
       <r>   24.2523    0.0000 </r>
       <r>   32.4888    0.0000 </r>
       <r>   34.2386    0.0000 </r>
      </set>
      <set comment="kpoint 24">
       <r>   -0.3579    1.0000 </r>
       <r>    0.6697    1.0000 </r>
       <r>    1.6427    1.0000 </r>
       <r>    2.3320    1.0000 </r>
       <r>    3.9560    1.0000 </r>
       <r>    8.0515   -0.0000 </r>
       <r>   11.4740   -0.0000 </r>
       <r>   17.6670    0.0000 </r>
       <r>   21.9359    0.0000 </r>
       <r>   24.4339    0.0000 </r>
       <r>   31.5661    0.0000 </r>
       <r>   34.0101    0.0000 </r>
      </set>
      <set comment="kpoint 25">
       <r>   -0.2596    1.0000 </r>
       <r>    0.7610    1.0000 </r>
       <r>    1.0316    1.0000 </r>
       <r>    2.4201    1.0000 </r>
       <r>    3.1908    1.0000 </r>
       <r>    6.2129    1.0322 </r>
       <r>   14.9520    0.0000 </r>
       <r>   17.6037    0.0000 </r>
       <r>   23.0978    0.0000 </r>
       <r>   26.0805    0.0000 </r>
       <r>   29.2089    0.0000 </r>
       <r>   33.8818    0.0000 </r>
      </set>
      <set comment="kpoint 26">
       <r>   -1.0706    1.0000 </r>
       <r>    0.6339    1.0000 </r>
       <r>    1.3816    1.0000 </r>
       <r>    2.2887    1.0000 </r>
       <r>    2.7478    1.0000 </r>
       <r>    4.8031    1.0000 </r>
       <r>   17.1395    0.0000 </r>
       <r>   19.9086    0.0000 </r>
       <r>   24.0680    0.0000 </r>
       <r>   27.2157    0.0000 </r>
       <r>   28.5743    0.0000 </r>
       <r>   32.5615    0.0000 </r>
      </set>
      <set comment="kpoint 27">
       <r>   -2.0803    1.0000 </r>
       <r>    0.9177    1.0000 </r>
       <r>    1.6608    1.0000 </r>
       <r>    1.8273    1.0000 </r>
       <r>    2.9548    1.0000 </r>
       <r>    3.6855    1.0000 </r>
       <r>   18.2540    0.0000 </r>
       <r>   22.7368    0.0000 </r>
       <r>   25.0816    0.0000 </r>
       <r>   27.4640    0.0000 </r>
       <r>   29.4843    0.0000 </r>
       <r>   30.7647    0.0000 </r>
      </set>
      <set comment="kpoint 28">
       <r>   -1.0179    1.0000 </r>
       <r>   -0.3800    1.0000 </r>
       <r>    2.6312    1.0000 </r>
       <r>    3.4047    1.0000 </r>
       <r>    3.8551    1.0000 </r>
       <r>    4.0737    1.0000 </r>
       <r>   18.7382    0.0000 </r>
       <r>   19.6896    0.0000 </r>
       <r>   20.0673    0.0000 </r>
       <r>   24.0419    0.0000 </r>
       <r>   25.9850    0.0000 </r>
       <r>   35.7953    0.0000 </r>
      </set>
      <set comment="kpoint 29">
       <r>   -0.8761    1.0000 </r>
       <r>   -0.4984    1.0000 </r>
       <r>    2.6923    1.0000 </r>
       <r>    3.7355    1.0000 </r>
       <r>    4.2828    1.0000 </r>
       <r>    5.6801    1.0000 </r>
       <r>   15.8454    0.0000 </r>
       <r>   17.9811    0.0000 </r>
       <r>   18.6025    0.0000 </r>
       <r>   25.1081    0.0000 </r>
       <r>   27.0535    0.0000 </r>
       <r>   35.4022    0.0000 </r>
      </set>
      <set comment="kpoint 30">
       <r>   -0.6983    1.0000 </r>
       <r>   -0.1597    1.0000 </r>
       <r>    2.3020    1.0000 </r>
       <r>    3.3974    1.0000 </r>
       <r>    4.5158    1.0000 </r>
       <r>    8.4496   -0.0000 </r>
       <r>   12.4672    0.0000 </r>
       <r>   16.2666    0.0000 </r>
       <r>   18.6945    0.0000 </r>
       <r>   25.2971    0.0000 </r>
       <r>   29.8748    0.0000 </r>
       <r>   34.3853    0.0000 </r>
      </set>
      <set comment="kpoint 31">
       <r>   -0.3773    1.0000 </r>
       <r>    0.3920    1.0000 </r>
       <r>    1.7054    1.0000 </r>
       <r>    3.0308    1.0000 </r>
       <r>    4.1496    1.0000 </r>
       <r>    9.7211   -0.0000 </r>
       <r>   11.9023    0.0000 </r>
       <r>   14.5563    0.0000 </r>
       <r>   20.1192    0.0000 </r>
       <r>   24.9858    0.0000 </r>
       <r>   32.9346    0.0000 </r>
       <r>   33.5311    0.0000 </r>
      </set>
      <set comment="kpoint 32">
       <r>   -0.0595    1.0000 </r>
       <r>    0.7125    1.0000 </r>
       <r>    1.1617    1.0000 </r>
       <r>    2.6332    1.0000 </r>
       <r>    3.6897    1.0000 </r>
       <r>    7.8858   -0.0000 </r>
       <r>   13.3874    0.0000 </r>
       <r>   15.5557    0.0000 </r>
       <r>   21.9691    0.0000 </r>
       <r>   24.8367    0.0000 </r>
       <r>   31.1514    0.0000 </r>
       <r>   34.2405    0.0000 </r>
      </set>
      <set comment="kpoint 33">
       <r>   -0.6818    1.0000 </r>
       <r>    0.9718    1.0000 </r>
       <r>    1.4997    1.0000 </r>
       <r>    2.0826    1.0000 </r>
       <r>    3.5920    1.0000 </r>
       <r>    6.1801    1.0353 </r>
       <r>   13.3291    0.0000 </r>
       <r>   19.3591    0.0000 </r>
       <r>   22.7728    0.0000 </r>
       <r>   25.5335    0.0000 </r>
       <r>   30.1303    0.0000 </r>
       <r>   33.3605    0.0000 </r>
      </set>
      <set comment="kpoint 34">
       <r>   -1.4185    1.0000 </r>
       <r>    1.3642    1.0000 </r>
       <r>    1.6386    1.0000 </r>
       <r>    1.8778    1.0000 </r>
       <r>    3.7354    1.0000 </r>
       <r>    4.5061    1.0000 </r>
       <r>   14.1436    0.0000 </r>
       <r>   21.9160    0.0000 </r>
       <r>   23.8791    0.0000 </r>
       <r>   26.2685    0.0000 </r>
       <r>   30.5781    0.0000 </r>
       <r>   31.7222    0.0000 </r>
      </set>
      <set comment="kpoint 35">
       <r>   -1.1658    1.0000 </r>
       <r>   -0.8149    1.0000 </r>
       <r>    4.1481    1.0000 </r>
       <r>    4.1739    1.0000 </r>
       <r>    4.5537    1.0000 </r>
       <r>    6.1052    1.0217 </r>
       <r>   14.5288    0.0000 </r>
       <r>   17.1422    0.0000 </r>
       <r>   17.4657    0.0000 </r>
       <r>   24.4274    0.0000 </r>
       <r>   26.9276    0.0000 </r>
       <r>   36.7035    0.0000 </r>
      </set>
      <set comment="kpoint 36">
       <r>   -1.0893    1.0000 </r>
       <r>   -0.7593    1.0000 </r>
       <r>    3.7157    1.0000 </r>
       <r>    4.1171    1.0000 </r>
       <r>    4.7168    1.0000 </r>
       <r>    8.2118   -0.0000 </r>
       <r>   12.6034    0.0000 </r>
       <r>   16.0940    0.0000 </r>
       <r>   17.0632    0.0000 </r>
       <r>   25.4208    0.0000 </r>
       <r>   27.4837    0.0000 </r>
       <r>   35.8047    0.0000 </r>
      </set>
      <set comment="kpoint 37">
       <r>   -0.7592    1.0000 </r>
       <r>   -0.2579    1.0000 </r>
       <r>    2.6191    1.0000 </r>
       <r>    3.5877    1.0000 </r>
       <r>    4.5100    1.0000 </r>
       <r>    9.9102   -0.0000 </r>
       <r>   11.5942   -0.0000 </r>
       <r>   14.8878    0.0000 </r>
       <r>   18.3282    0.0000 </r>
       <r>   25.5258    0.0000 </r>
       <r>   29.8988    0.0000 </r>
       <r>   34.5163    0.0000 </r>
      </set>
      <set comment="kpoint 38">
       <r>   -0.4107    1.0000 </r>
       <r>    0.4420    1.0000 </r>
       <r>    1.6590    1.0000 </r>
       <r>    2.7850    1.0000 </r>
       <r>    4.2881    1.0000 </r>
       <r>    9.8763   -0.0000 </r>
       <r>   10.3035   -0.0000 </r>
       <r>   16.6094    0.0000 </r>
       <r>   20.3166    0.0000 </r>
       <r>   24.6717    0.0000 </r>
       <r>   32.6858    0.0000 </r>
       <r>   33.9171    0.0000 </r>
      </set>
      <set comment="kpoint 39">
       <r>   -0.7475    1.0000 </r>
       <r>    0.7997    1.0000 </r>
       <r>    1.9829    1.0000 </r>
       <r>    2.1689    1.0000 </r>
       <r>    4.2218    1.0000 </r>
       <r>    8.1242   -0.0000 </r>
       <r>    9.9934   -0.0000 </r>
       <r>   19.7224    0.0000 </r>
       <r>   21.8975    0.0000 </r>
       <r>   23.9848    0.0000 </r>
       <r>   32.0286    0.0000 </r>
       <r>   33.6591    0.0000 </r>
      </set>
      <set comment="kpoint 40">
       <r>   -1.3443    1.0000 </r>
       <r>    1.1857    1.0000 </r>
       <r>    1.4926    1.0000 </r>
       <r>    3.1299    1.0000 </r>
       <r>    4.3144    1.0000 </r>
       <r>    5.9089    1.0007 </r>
       <r>   10.5715   -0.0000 </r>
       <r>   21.3050    0.0000 </r>
       <r>   23.3126    0.0000 </r>
       <r>   24.4832    0.0000 </r>
       <r>   32.0677    0.0000 </r>
       <r>   32.5962    0.0000 </r>
      </set>
      <set comment="kpoint 41">
       <r>   -1.2502    1.0000 </r>
       <r>   -0.9074    1.0000 </r>
       <r>    4.3064    1.0000 </r>
       <r>    4.4797    1.0000 </r>
       <r>    4.7313    1.0000 </r>
       <r>    7.3147   -0.0000 </r>
       <r>   12.8830    0.0000 </r>
       <r>   16.5905    0.0000 </r>
       <r>   16.9547    0.0000 </r>
       <r>   24.5931    0.0000 </r>
       <r>   27.1229    0.0000 </r>
       <r>   36.4806    0.0000 </r>
      </set>
      <set comment="kpoint 42">
       <r>   -1.0024    1.0000 </r>
       <r>   -0.6706    1.0000 </r>
       <r>    3.3106    1.0000 </r>
       <r>    4.0403    1.0000 </r>
       <r>    4.5433    1.0000 </r>
       <r>    6.9826   -0.0003 </r>
       <r>   14.1007    0.0000 </r>
       <r>   16.7430    0.0000 </r>
       <r>   17.5661    0.0000 </r>
       <r>   25.2763    0.0000 </r>
       <r>   27.3338    0.0000 </r>
       <r>   35.7671    0.0000 </r>
      </set>
      <set comment="kpoint 43">
       <r>   -0.6309    1.0000 </r>
       <r>    0.0396    1.0000 </r>
       <r>    1.8310    1.0000 </r>
       <r>    3.0579    1.0000 </r>
       <r>    4.4611    1.0000 </r>
       <r>    6.9474   -0.0008 </r>
       <r>   13.4569    0.0000 </r>
       <r>   18.2302    0.0000 </r>
       <r>   19.4221    0.0000 </r>
       <r>   24.9698    0.0000 </r>
       <r>   29.8681    0.0000 </r>
       <r>   34.0311    0.0000 </r>
      </set>
      <set comment="kpoint 44">
       <r>   -0.7990    1.0000 </r>
       <r>    0.8529    1.0000 </r>
       <r>    1.6584    1.0000 </r>
       <r>    2.1231    1.0000 </r>
       <r>    4.3867    1.0000 </r>
       <r>    6.6359   -0.0274 </r>
       <r>   11.8423   -0.0000 </r>
       <r>   20.8316    0.0000 </r>
       <r>   21.2665    0.0000 </r>
       <r>   24.0986    0.0000 </r>
       <r>   32.1931    0.0000 </r>
       <r>   33.9388    0.0000 </r>
      </set>
      <set comment="kpoint 45">
       <r>   -1.0447    1.0000 </r>
       <r>   -0.6354    1.0000 </r>
       <r>    3.4894    1.0000 </r>
       <r>    3.8603    1.0000 </r>
       <r>    4.3075    1.0000 </r>
       <r>    4.8009    1.0000 </r>
       <r>   16.7342    0.0000 </r>
       <r>   18.2306    0.0000 </r>
       <r>   18.4124    0.0000 </r>
       <r>   24.1971    0.0000 </r>
       <r>   26.5395    0.0000 </r>
       <r>   36.8157    0.0000 </r>
      </set>
      <set comment="kpoint 46">
       <r>   -0.8456    1.0000 </r>
       <r>   -0.2565    1.0000 </r>
       <r>    2.0420    1.0000 </r>
       <r>    3.2881    1.0000 </r>
       <r>    3.9086    1.0000 </r>
       <r>    4.7042    1.0000 </r>
       <r>   17.4069    0.0000 </r>
       <r>   19.3897    0.0000 </r>
       <r>   20.3576    0.0000 </r>
       <r>   25.0619    0.0000 </r>
       <r>   26.7085    0.0000 </r>
       <r>   34.5031    0.0000 </r>
      </set>
      <set comment="kpoint 47">
       <r>   -0.9645    1.0000 </r>
       <r>    0.5742    1.0000 </r>
       <r>    1.2902    1.0000 </r>
       <r>    2.3090    1.0000 </r>
       <r>    3.8690    1.0000 </r>
       <r>    4.7015    1.0000 </r>
       <r>   15.8073    0.0000 </r>
       <r>   21.3727    0.0000 </r>
       <r>   22.3503    0.0000 </r>
       <r>   25.0175    0.0000 </r>
       <r>   29.9216    0.0000 </r>
       <r>   32.5477    0.0000 </r>
      </set>
      <set comment="kpoint 48">
       <r>   -1.3095    1.0000 </r>
       <r>   -0.0659    1.0000 </r>
       <r>    2.0563    1.0000 </r>
       <r>    2.9054    1.0000 </r>
       <r>    3.1737    1.0000 </r>
       <r>    3.8422    1.0000 </r>
       <r>   20.2853    0.0000 </r>
       <r>   21.1787    0.0000 </r>
       <r>   22.4084    0.0000 </r>
       <r>   24.2708    0.0000 </r>
       <r>   25.3536    0.0000 </r>
       <r>   34.4335    0.0000 </r>
      </set>
      <set comment="kpoint 49">
       <r>   -1.7944    1.0000 </r>
       <r>    0.3560    1.0000 </r>
       <r>    1.7126    1.0000 </r>
       <r>    2.3847    1.0000 </r>
       <r>    2.8527    1.0000 </r>
       <r>    3.7747    1.0000 </r>
       <r>   19.9974    0.0000 </r>
       <r>   22.0814    0.0000 </r>
       <r>   24.0963    0.0000 </r>
       <r>   25.2313    0.0000 </r>
       <r>   27.6405    0.0000 </r>
       <r>   32.3085    0.0000 </r>
      </set>
      <set comment="kpoint 50">
       <r>   -2.7301    1.0000 </r>
       <r>    0.6340    1.0000 </r>
       <r>    1.9661    1.0000 </r>
       <r>    2.0263    1.0000 </r>
       <r>    2.4337    1.0000 </r>
       <r>    3.4063    1.0000 </r>
       <r>   22.4718    0.0000 </r>
       <r>   23.4214    0.0000 </r>
       <r>   24.1910    0.0000 </r>
       <r>   25.0632    0.0000 </r>
       <r>   28.9740    0.0000 </r>
       <r>   32.6460    0.0000 </r>
      </set>
      <set comment="kpoint 51">
       <r>   -3.4103    1.0000 </r>
       <r>    1.1190    1.0000 </r>
       <r>    1.5849    1.0000 </r>
       <r>    1.5849    1.0000 </r>
       <r>    2.9951    1.0000 </r>
       <r>    2.9951    1.0000 </r>
       <r>   21.8220    0.0000 </r>
       <r>   22.8422    0.0000 </r>
       <r>   26.8101    0.0000 </r>
       <r>   26.8101    0.0000 </r>
       <r>   30.2118    0.0000 </r>
       <r>   32.7954    0.0000 </r>
      </set>
      <set comment="kpoint 52">
       <r>   -2.7539    1.0000 </r>
       <r>    0.8903    1.0000 </r>
       <r>    1.7236    1.0000 </r>
       <r>    1.8143    1.0000 </r>
       <r>    2.6457    1.0000 </r>
       <r>    3.4196    1.0000 </r>
       <r>   20.7870    0.0000 </r>
       <r>   22.5383    0.0000 </r>
       <r>   25.4013    0.0000 </r>
       <r>   27.7643    0.0000 </r>
       <r>   28.8793    0.0000 </r>
       <r>   32.4222    0.0000 </r>
      </set>
      <set comment="kpoint 53">
       <r>   -1.6538    1.0000 </r>
       <r>    0.7157    1.0000 </r>
       <r>    1.5982    1.0000 </r>
       <r>    2.1253    1.0000 </r>
       <r>    2.5429    1.0000 </r>
       <r>    4.2327    1.0000 </r>
       <r>   18.3381    0.0000 </r>
       <r>   20.9968    0.0000 </r>
       <r>   25.0123    0.0000 </r>
       <r>   26.7523    0.0000 </r>
       <r>   29.5907    0.0000 </r>
       <r>   31.5802    0.0000 </r>
      </set>
      <set comment="kpoint 54">
       <r>   -0.9703    1.0000 </r>
       <r>    1.1386    1.0000 </r>
       <r>    1.5222    1.0000 </r>
       <r>    1.8963    1.0000 </r>
       <r>    3.2916    1.0000 </r>
       <r>    5.3766    1.0000 </r>
       <r>   14.4369    0.0000 </r>
       <r>   20.3183    0.0000 </r>
       <r>   23.3410    0.0000 </r>
       <r>   26.6008    0.0000 </r>
       <r>   29.3007    0.0000 </r>
       <r>   32.6965    0.0000 </r>
      </set>
      <set comment="kpoint 55">
       <r>   -0.9509    1.0000 </r>
       <r>    0.9781    1.0000 </r>
       <r>    1.7735    1.0000 </r>
       <r>    2.4286    1.0000 </r>
       <r>    4.0594    1.0000 </r>
       <r>    6.9913   -0.0003 </r>
       <r>   10.7916   -0.0000 </r>
       <r>   20.2844    0.0000 </r>
       <r>   22.6944    0.0000 </r>
       <r>   24.1258    0.0000 </r>
       <r>   31.7873    0.0000 </r>
       <r>   32.9320    0.0000 </r>
      </set>
      <set comment="kpoint 56">
       <r>   -0.9939    1.0000 </r>
       <r>    0.9476    1.0000 </r>
       <r>    1.8293    1.0000 </r>
       <r>    2.2493    1.0000 </r>
       <r>    4.4578    1.0000 </r>
       <r>    6.9446   -0.0009 </r>
       <r>   10.6101   -0.0000 </r>
       <r>   20.9592    0.0000 </r>
       <r>   22.7768    0.0000 </r>
       <r>   23.0695    0.0000 </r>
       <r>   32.8450    0.0000 </r>
       <r>   33.1412    0.0000 </r>
      </set>
      <set comment="kpoint 57">
       <r>   -1.0684    1.0000 </r>
       <r>    1.0473    1.0000 </r>
       <r>    1.3130    1.0000 </r>
       <r>    2.0084    1.0000 </r>
       <r>    4.2883    1.0000 </r>
       <r>    4.7693    1.0000 </r>
       <r>   14.2963    0.0000 </r>
       <r>   22.0480    0.0000 </r>
       <r>   22.6339    0.0000 </r>
       <r>   24.2664    0.0000 </r>
       <r>   31.7662    0.0000 </r>
       <r>   32.6283    0.0000 </r>
      </set>
      <set comment="kpoint 58">
       <r>   -1.6859    1.0000 </r>
       <r>    0.4976    1.0000 </r>
       <r>    1.6070    1.0000 </r>
       <r>    2.1591    1.0000 </r>
       <r>    3.2387    1.0000 </r>
       <r>    3.7822    1.0000 </r>
       <r>   18.5198    0.0000 </r>
       <r>   23.2500    0.0000 </r>
       <r>   23.2838    0.0000 </r>
       <r>   25.4417    0.0000 </r>
       <r>   28.6620    0.0000 </r>
       <r>   32.5333    0.0000 </r>
      </set>
      <set comment="kpoint 59">
       <r>   -2.3769    1.0000 </r>
       <r>    0.7680    1.0000 </r>
       <r>    1.7434    1.0000 </r>
       <r>    1.8937    1.0000 </r>
       <r>    2.8471    1.0000 </r>
       <r>    3.4766    1.0000 </r>
       <r>   19.6634    0.0000 </r>
       <r>   23.2162    0.0000 </r>
       <r>   24.8287    0.0000 </r>
       <r>   26.8908    0.0000 </r>
       <r>   29.0550    0.0000 </r>
       <r>   31.9338    0.0000 </r>
      </set>
      <set comment="kpoint 60">
       <r>   -1.4777    1.0000 </r>
       <r>    0.4860    1.0000 </r>
       <r>    1.4959    1.0000 </r>
       <r>    2.3512    1.0000 </r>
       <r>    2.8253    1.0000 </r>
       <r>    4.2100    1.0000 </r>
       <r>   18.4878    0.0000 </r>
       <r>   21.0297    0.0000 </r>
       <r>   24.1699    0.0000 </r>
       <r>   26.1678    0.0000 </r>
       <r>   29.2362    0.0000 </r>
       <r>   31.3594    0.0000 </r>
      </set>
      <set comment="kpoint 61">
       <r>   -0.5127    1.0000 </r>
       <r>    0.5106    1.0000 </r>
       <r>    1.0589    1.0000 </r>
       <r>    2.5993    1.0000 </r>
       <r>    3.1701    1.0000 </r>
       <r>    5.4825    1.0000 </r>
       <r>   16.0153    0.0000 </r>
       <r>   18.7523    0.0000 </r>
       <r>   22.6900    0.0000 </r>
       <r>   27.0584    0.0000 </r>
       <r>   28.5091    0.0000 </r>
       <r>   33.1880    0.0000 </r>
      </set>
      <set comment="kpoint 62">
       <r>   -0.3835    1.0000 </r>
       <r>    0.6958    1.0000 </r>
       <r>    1.3884    1.0000 </r>
       <r>    2.3798    1.0000 </r>
       <r>    3.9444    1.0000 </r>
       <r>    7.2219   -0.0000 </r>
       <r>   12.3498    0.0000 </r>
       <r>   18.4745    0.0000 </r>
       <r>   21.3170    0.0000 </r>
       <r>   25.4677    0.0000 </r>
       <r>   30.6668    0.0000 </r>
       <r>   34.4137    0.0000 </r>
      </set>
      <set comment="kpoint 63">
       <r>   -0.4613    1.0000 </r>
       <r>    0.5951    1.0000 </r>
       <r>    1.7530    1.0000 </r>
       <r>    2.3059    1.0000 </r>
       <r>    4.2774    1.0000 </r>
       <r>    8.9142   -0.0000 </r>
       <r>    9.9807   -0.0000 </r>
       <r>   19.1273    0.0000 </r>
       <r>   20.2611    0.0000 </r>
       <r>   24.9041    0.0000 </r>
       <r>   31.6560    0.0000 </r>
       <r>   34.8682    0.0000 </r>
      </set>
      <set comment="kpoint 64">
       <r>   -0.5127    1.0000 </r>
       <r>    0.6928    1.0000 </r>
       <r>    1.1414    1.0000 </r>
       <r>    2.5220    1.0000 </r>
       <r>    4.0835    1.0000 </r>
       <r>    6.4391    0.4668 </r>
       <r>   13.3731    0.0000 </r>
       <r>   19.3681    0.0000 </r>
       <r>   20.8741    0.0000 </r>
       <r>   25.4581    0.0000 </r>
       <r>   30.6306    0.0000 </r>
       <r>   33.6198    0.0000 </r>
      </set>
      <set comment="kpoint 65">
       <r>   -0.8487    1.0000 </r>
       <r>    0.2333    1.0000 </r>
       <r>    1.3050    1.0000 </r>
       <r>    2.7397    1.0000 </r>
       <r>    3.2775    1.0000 </r>
       <r>    4.7691    1.0000 </r>
       <r>   17.3065    0.0000 </r>
       <r>   19.8542    0.0000 </r>
       <r>   22.4869    0.0000 </r>
       <r>   26.2631    0.0000 </r>
       <r>   28.1967    0.0000 </r>
       <r>   32.4009    0.0000 </r>
      </set>
      <set comment="kpoint 66">
       <r>   -1.0784    1.0000 </r>
       <r>    0.2203    1.0000 </r>
       <r>    1.5243    1.0000 </r>
       <r>    2.4940    1.0000 </r>
       <r>    3.9579    1.0000 </r>
       <r>    4.0784    1.0000 </r>
       <r>   17.2893    0.0000 </r>
       <r>   21.7299    0.0000 </r>
       <r>   22.3550    0.0000 </r>
       <r>   24.4610    0.0000 </r>
       <r>   28.3065    0.0000 </r>
       <r>   33.4565    0.0000 </r>
      </set>
      <set comment="kpoint 67">
       <r>   -0.5340    1.0000 </r>
       <r>   -0.0079    1.0000 </r>
       <r>    1.4229    1.0000 </r>
       <r>    3.1773    1.0000 </r>
       <r>    3.7642    1.0000 </r>
       <r>    5.5386    1.0000 </r>
       <r>   16.0841    0.0000 </r>
       <r>   18.6077    0.0000 </r>
       <r>   20.5868    0.0000 </r>
       <r>   26.2446    0.0000 </r>
       <r>   27.9758    0.0000 </r>
       <r>   33.2766    0.0000 </r>
      </set>
      <set comment="kpoint 68">
       <r>   -0.1641    1.0000 </r>
       <r>    0.1585    1.0000 </r>
       <r>    1.1831    1.0000 </r>
       <r>    3.2632    1.0000 </r>
       <r>    4.0948    1.0000 </r>
       <r>    7.5065   -0.0000 </r>
       <r>   14.0081    0.0000 </r>
       <r>   16.5264    0.0000 </r>
       <r>   19.0161    0.0000 </r>
       <r>   27.3248    0.0000 </r>
       <r>   29.1623    0.0000 </r>
       <r>   33.4035    0.0000 </r>
      </set>
      <set comment="kpoint 69">
       <r>    0.0196    1.0000 </r>
       <r>    0.3384    1.0000 </r>
       <r>    1.2065    1.0000 </r>
       <r>    2.8626    1.0000 </r>
       <r>    4.3594    1.0000 </r>
       <r>    9.9698   -0.0000 </r>
       <r>   11.1019   -0.0000 </r>
       <r>   16.2065    0.0000 </r>
       <r>   18.3471    0.0000 </r>
       <r>   26.9623    0.0000 </r>
       <r>   31.0162    0.0000 </r>
       <r>   34.5299    0.0000 </r>
      </set>
      <set comment="kpoint 70">
       <r>    0.2572    1.0000 </r>
       <r>    0.3861    1.0000 </r>
       <r>    0.8064    1.0000 </r>
       <r>    2.9508    1.0000 </r>
       <r>    4.0659    1.0000 </r>
       <r>    8.2891   -0.0000 </r>
       <r>   13.3676    0.0000 </r>
       <r>   15.5940    0.0000 </r>
       <r>   19.3981    0.0000 </r>
       <r>   27.2549    0.0000 </r>
       <r>   29.9235    0.0000 </r>
       <r>   34.7973    0.0000 </r>
      </set>
      <set comment="kpoint 71">
       <r>   -0.1623    1.0000 </r>
       <r>    0.3635    1.0000 </r>
       <r>    0.9037    1.0000 </r>
       <r>    2.9781    1.0000 </r>
       <r>    3.6477    1.0000 </r>
       <r>    6.3537    0.8022 </r>
       <r>   14.9673    0.0000 </r>
       <r>   17.6020    0.0000 </r>
       <r>   20.8948    0.0000 </r>
       <r>   27.0002    0.0000 </r>
       <r>   28.8439    0.0000 </r>
       <r>   33.4365    0.0000 </r>
      </set>
      <set comment="kpoint 72">
       <r>   -0.8011    1.0000 </r>
       <r>   -0.2992    1.0000 </r>
       <r>    2.3846    1.0000 </r>
       <r>    3.2843    1.0000 </r>
       <r>    4.5200    1.0000 </r>
       <r>    6.1723    1.0348 </r>
       <r>   14.6797    0.0000 </r>
       <r>   18.2050    0.0000 </r>
       <r>   19.1668    0.0000 </r>
       <r>   24.7292    0.0000 </r>
       <r>   28.2881    0.0000 </r>
       <r>   35.1908    0.0000 </r>
      </set>
      <set comment="kpoint 73">
       <r>   -0.7000    1.0000 </r>
       <r>   -0.3860    1.0000 </r>
       <r>    2.4174    1.0000 </r>
       <r>    3.7478    1.0000 </r>
       <r>    4.5007    1.0000 </r>
       <r>    7.9972   -0.0000 </r>
       <r>   13.5371    0.0000 </r>
       <r>   16.2280    0.0000 </r>
       <r>   17.5050    0.0000 </r>
       <r>   26.5653    0.0000 </r>
       <r>   28.2493    0.0000 </r>
       <r>   34.2697    0.0000 </r>
      </set>
      <set comment="kpoint 74">
       <r>   -0.4178    1.0000 </r>
       <r>   -0.0503    1.0000 </r>
       <r>    1.9172    1.0000 </r>
       <r>    3.2883    1.0000 </r>
       <r>    4.7114    1.0000 </r>
       <r>   10.4723   -0.0000 </r>
       <r>   12.0347    0.0000 </r>
       <r>   14.7086    0.0000 </r>
       <r>   16.7546    0.0000 </r>
       <r>   28.0381    0.0000 </r>
       <r>   29.8895    0.0000 </r>
       <r>   32.7876    0.0000 </r>
      </set>
      <set comment="kpoint 75">
       <r>   -0.0458    1.0000 </r>
       <r>    0.4467    1.0000 </r>
       <r>    1.1615    1.0000 </r>
       <r>    2.9310    1.0000 </r>
       <r>    4.4604    1.0000 </r>
       <r>   10.2395   -0.0000 </r>
       <r>   12.2442    0.0000 </r>
       <r>   14.3689    0.0000 </r>
       <r>   17.9349    0.0000 </r>
       <r>   27.6087    0.0000 </r>
       <r>   31.1474    0.0000 </r>
       <r>   33.7614    0.0000 </r>
      </set>
      <set comment="kpoint 76">
       <r>   -0.1019    1.0000 </r>
       <r>    0.4227    1.0000 </r>
       <r>    1.2855    1.0000 </r>
       <r>    2.6715    1.0000 </r>
       <r>    4.1935    1.0000 </r>
       <r>    8.5584   -0.0000 </r>
       <r>   11.5323   -0.0000 </r>
       <r>   17.5790    0.0000 </r>
       <r>   19.5413    0.0000 </r>
       <r>   26.1085    0.0000 </r>
       <r>   30.8915    0.0000 </r>
       <r>   35.2698    0.0000 </r>
      </set>
      <set comment="kpoint 77">
       <r>   -0.9825    1.0000 </r>
       <r>   -0.5786    1.0000 </r>
       <r>    3.3215    1.0000 </r>
       <r>    3.9013    1.0000 </r>
       <r>    4.5912    1.0000 </r>
       <r>    8.9058   -0.0000 </r>
       <r>   12.1813    0.0000 </r>
       <r>   15.3858    0.0000 </r>
       <r>   17.9096    0.0000 </r>
       <r>   25.2319    0.0000 </r>
       <r>   28.4498    0.0000 </r>
       <r>   35.5868    0.0000 </r>
      </set>
      <set comment="kpoint 78">
       <r>   -0.7924    1.0000 </r>
       <r>   -0.4681    1.0000 </r>
       <r>    2.7960    1.0000 </r>
       <r>    3.7423    1.0000 </r>
       <r>    4.7120    1.0000 </r>
       <r>    9.3725   -0.0000 </r>
       <r>   12.2288    0.0000 </r>
       <r>   15.4882    0.0000 </r>
       <r>   16.9377    0.0000 </r>
       <r>   26.7392    0.0000 </r>
       <r>   28.3439    0.0000 </r>
       <r>   34.3922    0.0000 </r>
      </set>
      <set comment="kpoint 79">
       <r>   -0.3116    1.0000 </r>
       <r>    0.0151    1.0000 </r>
       <r>    1.6050    1.0000 </r>
       <r>    3.3443    1.0000 </r>
       <r>    4.4773    1.0000 </r>
       <r>    8.9319   -0.0000 </r>
       <r>   13.0975    0.0000 </r>
       <r>   15.5032    0.0000 </r>
       <r>   17.5007    0.0000 </r>
       <r>   27.7648    0.0000 </r>
       <r>   29.5233    0.0000 </r>
       <r>   33.1308    0.0000 </r>
      </set>
      <set comment="kpoint 80">
       <r>   -0.9061    1.0000 </r>
       <r>   -0.4838    1.0000 </r>
       <r>    2.9687    1.0000 </r>
       <r>    3.6523    1.0000 </r>
       <r>    4.5977    1.0000 </r>
       <r>    7.5921   -0.0000 </r>
       <r>   13.3774    0.0000 </r>
       <r>   16.4058    0.0000 </r>
       <r>   18.3405    0.0000 </r>
       <r>   25.0319    0.0000 </r>
       <r>   28.3857    0.0000 </r>
       <r>   35.5180    0.0000 </r>
      </set>
      <set comment="kpoint 81">
       <r>   -0.5659    1.0000 </r>
       <r>   -0.2258    1.0000 </r>
       <r>    1.8857    1.0000 </r>
       <r>    3.5606    1.0000 </r>
       <r>    4.1690    1.0000 </r>
       <r>    6.6257   -0.0220 </r>
       <r>   14.8415    0.0000 </r>
       <r>   17.3855    0.0000 </r>
       <r>   18.7655    0.0000 </r>
       <r>   26.3474    0.0000 </r>
       <r>   28.0926    0.0000 </r>
       <r>   33.9152    0.0000 </r>
      </set>
      <set comment="kpoint 82">
       <r>   -0.7896    1.0000 </r>
       <r>   -0.0505    1.0000 </r>
       <r>    1.7998    1.0000 </r>
       <r>    2.8795    1.0000 </r>
       <r>    4.3373    1.0000 </r>
       <r>    4.9410    1.0000 </r>
       <r>   15.9915    0.0000 </r>
       <r>   20.3233    0.0000 </r>
       <r>   20.3484    0.0000 </r>
       <r>   24.4604    0.0000 </r>
       <r>   28.2199    0.0000 </r>
       <r>   34.4457    0.0000 </r>
      </set>
      <set comment="kpoint 83">
       <r>   -2.3110    1.0000 </r>
       <r>    1.1731    1.0000 </r>
       <r>    1.6589    1.0000 </r>
       <r>    1.6589    1.0000 </r>
       <r>    3.2436    1.0000 </r>
       <r>    3.2436    1.0000 </r>
       <r>   18.1148    0.0000 </r>
       <r>   22.8159    0.0000 </r>
       <r>   27.3489    0.0000 </r>
       <r>   27.3489    0.0000 </r>
       <r>   29.2986    0.0000 </r>
       <r>   30.8097    0.0000 </r>
      </set>
      <set comment="kpoint 84">
       <r>   -1.6843    1.0000 </r>
       <r>    1.0407    1.0000 </r>
       <r>    1.5997    1.0000 </r>
       <r>    1.8148    1.0000 </r>
       <r>    2.9772    1.0000 </r>
       <r>    4.1368    1.0000 </r>
       <r>   16.9252    0.0000 </r>
       <r>   22.0800    0.0000 </r>
       <r>   24.5017    0.0000 </r>
       <r>   28.1134    0.0000 </r>
       <r>   28.9008    0.0000 </r>
       <r>   30.8891    0.0000 </r>
      </set>
      <set comment="kpoint 85">
       <r>   -0.6471    1.0000 </r>
       <r>    0.7388    1.0000 </r>
       <r>    1.2834    1.0000 </r>
       <r>    2.2376    1.0000 </r>
       <r>    2.8671    1.0000 </r>
       <r>    5.4667    1.0000 </r>
       <r>   15.9628    0.0000 </r>
       <r>   18.7517    0.0000 </r>
       <r>   23.8840    0.0000 </r>
       <r>   26.9532    0.0000 </r>
       <r>   28.3600    0.0000 </r>
       <r>   33.5186    0.0000 </r>
      </set>
      <set comment="kpoint 86">
       <r>   -0.1316    1.0000 </r>
       <r>    0.8308    1.0000 </r>
       <r>    1.1296    1.0000 </r>
       <r>    2.4162    1.0000 </r>
       <r>    3.3705    1.0000 </r>
       <r>    6.9809   -0.0004 </r>
       <r>   14.0994    0.0000 </r>
       <r>   16.5018    0.0000 </r>
       <r>   23.6453    0.0000 </r>
       <r>   24.2972    0.0000 </r>
       <r>   30.3894    0.0000 </r>
       <r>   33.6658    0.0000 </r>
      </set>
      <set comment="kpoint 87">
       <r>   -0.3936    1.0000 </r>
       <r>    0.6258    1.0000 </r>
       <r>    1.6706    1.0000 </r>
       <r>    2.4934    1.0000 </r>
       <r>    4.1106    1.0000 </r>
       <r>    9.0201   -0.0000 </r>
       <r>   10.6883   -0.0000 </r>
       <r>   17.0462    0.0000 </r>
       <r>   21.9338    0.0000 </r>
       <r>   23.7018    0.0000 </r>
       <r>   32.8942    0.0000 </r>
       <r>   33.7339    0.0000 </r>
      </set>
      <set comment="kpoint 88">
       <r>   -0.6231    1.0000 </r>
       <r>    0.3720    1.0000 </r>
       <r>    1.7050    1.0000 </r>
       <r>    2.6688    1.0000 </r>
       <r>    4.5180    1.0000 </r>
       <r>    7.5255   -0.0000 </r>
       <r>   12.0677    0.0000 </r>
       <r>   18.5189    0.0000 </r>
       <r>   20.5172    0.0000 </r>
       <r>   24.0790    0.0000 </r>
       <r>   31.7690    0.0000 </r>
       <r>   34.0317    0.0000 </r>
      </set>
      <set comment="kpoint 89">
       <r>   -1.4826    1.0000 </r>
       <r>    1.2571    1.0000 </r>
       <r>    1.4269    1.0000 </r>
       <r>    1.7959    1.0000 </r>
       <r>    3.8354    1.0000 </r>
       <r>    3.9908    1.0000 </r>
       <r>   15.5296    0.0000 </r>
       <r>   22.4113    0.0000 </r>
       <r>   24.0857    0.0000 </r>
       <r>   25.8956    0.0000 </r>
       <r>   30.6933    0.0000 </r>
       <r>   31.8443    0.0000 </r>
      </set>
      <set comment="kpoint 90">
       <r>   -0.8263    1.0000 </r>
       <r>    1.0411    1.0000 </r>
       <r>    1.0976    1.0000 </r>
       <r>    2.1824    1.0000 </r>
       <r>    3.6850    1.0000 </r>
       <r>    5.4267    1.0000 </r>
       <r>   14.4794    0.0000 </r>
       <r>   20.3851    0.0000 </r>
       <r>   22.4678    0.0000 </r>
       <r>   25.8102    0.0000 </r>
       <r>   30.0945    0.0000 </r>
       <r>   33.0067    0.0000 </r>
      </set>
      <set comment="kpoint 91">
       <r>    0.0807    1.0000 </r>
       <r>    0.6175    1.0000 </r>
       <r>    0.8012    1.0000 </r>
       <r>    2.7308    1.0000 </r>
       <r>    3.6187    1.0000 </r>
       <r>    7.1219   -0.0000 </r>
       <r>   14.0931    0.0000 </r>
       <r>   16.5309    0.0000 </r>
       <r>   21.3747    0.0000 </r>
       <r>   26.3570    0.0000 </r>
       <r>   29.7103    0.0000 </r>
       <r>   34.8110    0.0000 </r>
      </set>
      <set comment="kpoint 92">
       <r>   -0.0134    1.0000 </r>
       <r>    0.5189    1.0000 </r>
       <r>    1.1755    1.0000 </r>
       <r>    2.8409    1.0000 </r>
       <r>    4.0809    1.0000 </r>
       <r>    8.9985   -0.0000 </r>
       <r>   12.7393    0.0000 </r>
       <r>   14.8600    0.0000 </r>
       <r>   19.8623    0.0000 </r>
       <r>   26.0994    0.0000 </r>
       <r>   31.2720    0.0000 </r>
       <r>   35.4497    0.0000 </r>
      </set>
      <set comment="kpoint 93">
       <r>   -0.3778    1.0000 </r>
       <r>    0.2013    1.0000 </r>
       <r>    1.6320    1.0000 </r>
       <r>    3.1158    1.0000 </r>
       <r>    4.4150    1.0000 </r>
       <r>    9.3063   -0.0000 </r>
       <r>   11.6771   -0.0000 </r>
       <r>   16.2145    0.0000 </r>
       <r>   18.5712    0.0000 </r>
       <r>   26.1190    0.0000 </r>
       <r>   31.2762    0.0000 </r>
       <r>   33.3076    0.0000 </r>
      </set>
      <set comment="kpoint 94">
       <r>   -0.7653    1.0000 </r>
       <r>    0.6858    1.0000 </r>
       <r>    1.4359    1.0000 </r>
       <r>    2.3096    1.0000 </r>
       <r>    4.4691    1.0000 </r>
       <r>    6.0235    1.0070 </r>
       <r>   13.1174    0.0000 </r>
       <r>   20.6220    0.0000 </r>
       <r>   21.4319    0.0000 </r>
       <r>   23.7904    0.0000 </r>
       <r>   31.9466    0.0000 </r>
       <r>   33.4008    0.0000 </r>
      </set>
      <set comment="kpoint 95">
       <r>   -0.3715    1.0000 </r>
       <r>    0.3879    1.0000 </r>
       <r>    1.3432    1.0000 </r>
       <r>    2.8674    1.0000 </r>
       <r>    4.3058    1.0000 </r>
       <r>    7.7673   -0.0000 </r>
       <r>   12.4041    0.0000 </r>
       <r>   18.0626    0.0000 </r>
       <r>   19.3543    0.0000 </r>
       <r>   25.6956    0.0000 </r>
       <r>   30.9577    0.0000 </r>
       <r>   33.5934    0.0000 </r>
      </set>
      <set comment="kpoint 96">
       <r>    0.0248    1.0000 </r>
       <r>    0.4680    1.0000 </r>
       <r>    0.9676    1.0000 </r>
       <r>    2.9932    1.0000 </r>
       <r>    4.4639    1.0000 </r>
       <r>    9.6834   -0.0000 </r>
       <r>   12.7901    0.0000 </r>
       <r>   14.7375    0.0000 </r>
       <r>   17.6505    0.0000 </r>
       <r>   28.4057    0.0000 </r>
       <r>   30.1115    0.0000 </r>
       <r>   33.7500    0.0000 </r>
      </set>
      <set comment="kpoint 97">
       <r>   -0.1099    1.0000 </r>
       <r>    0.4751    1.0000 </r>
       <r>    1.1393    1.0000 </r>
       <r>    2.9462    1.0000 </r>
       <r>    4.7139    1.0000 </r>
       <r>   11.0277   -0.0000 </r>
       <r>   12.4210    0.0000 </r>
       <r>   13.8282    0.0000 </r>
       <r>   16.6462    0.0000 </r>
       <r>   29.2285    0.0000 </r>
       <r>   30.7426    0.0000 </r>
       <r>   32.3181    0.0000 </r>
      </set>
      <set comment="kpoint 98">
       <r>   -0.6050    1.0000 </r>
       <r>    0.1621    1.0000 </r>
       <r>    2.0198    1.0000 </r>
       <r>    3.0416    1.0000 </r>
       <r>    4.4283    1.0000 </r>
       <r>    9.1568   -0.0000 </r>
       <r>   11.2707   -0.0000 </r>
       <r>   16.3720    0.0000 </r>
       <r>   19.9069    0.0000 </r>
       <r>   24.4890    0.0000 </r>
       <r>   31.6356    0.0000 </r>
       <r>   34.4319    0.0000 </r>
      </set>
      <set comment="kpoint 99">
       <r>   -0.4233    1.0000 </r>
       <r>    0.1236    1.0000 </r>
       <r>    1.8547    1.0000 </r>
       <r>    3.2066    1.0000 </r>
       <r>    4.4723    1.0000 </r>
       <r>   10.5923   -0.0000 </r>
       <r>   11.4373   -0.0000 </r>
       <r>   14.5215    0.0000 </r>
       <r>   18.2465    0.0000 </r>
       <r>   26.4229    0.0000 </r>
       <r>   31.6159    0.0000 </r>
       <r>   32.9182    0.0000 </r>
      </set>
      <set comment="kpoint 100">
       <r>   -0.6264    1.0000 </r>
       <r>    0.0638    1.0000 </r>
       <r>    2.2346    1.0000 </r>
       <r>    3.3267    1.0000 </r>
       <r>    4.2951    1.0000 </r>
       <r>   10.4062   -0.0000 </r>
       <r>   11.0815   -0.0000 </r>
       <r>   14.5981    0.0000 </r>
       <r>   19.6045    0.0000 </r>
       <r>   24.7661    0.0000 </r>
       <r>   31.5971    0.0000 </r>
       <r>   34.6164    0.0000 </r>
      </set>
      <set comment="kpoint 101">
       <r>   -1.6441    1.0000 </r>
       <r>    1.4816    1.0000 </r>
       <r>    1.4816    1.0000 </r>
       <r>    2.3813    1.0000 </r>
       <r>    3.8530    1.0000 </r>
       <r>    3.8530    1.0000 </r>
       <r>   14.0346    0.0000 </r>
       <r>   21.8319    0.0000 </r>
       <r>   25.9808    0.0000 </r>
       <r>   25.9808    0.0000 </r>
       <r>   31.1793    0.0000 </r>
       <r>   31.2501    0.0000 </r>
      </set>
      <set comment="kpoint 102">
       <r>   -1.2823    1.0000 </r>
       <r>    1.2759    1.0000 </r>
       <r>    1.6029    1.0000 </r>
       <r>    2.3091    1.0000 </r>
       <r>    3.7297    1.0000 </r>
       <r>    5.1827    1.0000 </r>
       <r>   12.8984    0.0000 </r>
       <r>   21.4537    0.0000 </r>
       <r>   23.2050    0.0000 </r>
       <r>   25.9846    0.0000 </r>
       <r>   30.5795    0.0000 </r>
       <r>   32.2131    0.0000 </r>
      </set>
      <set comment="kpoint 103">
       <r>   -0.5309    1.0000 </r>
       <r>    0.8540    1.0000 </r>
       <r>    1.7242    1.0000 </r>
       <r>    2.1037    1.0000 </r>
       <r>    3.7030    1.0000 </r>
       <r>    7.0166   -0.0001 </r>
       <r>   12.3355    0.0000 </r>
       <r>   18.4352    0.0000 </r>
       <r>   23.1951    0.0000 </r>
       <r>   24.2159    0.0000 </r>
       <r>   30.9848    0.0000 </r>
       <r>   33.3462    0.0000 </r>
      </set>
      <set comment="kpoint 104">
       <r>   -0.2542    1.0000 </r>
[...]
      <set comment="kpoint 93">
       <set comment="band 1">
        <r>  0.0481  0.0222  0.8119 </r>
       </set>
       <set comment="band 2">
        <r>  0.0000  0.0764  0.8032 </r>
       </set>
       <set comment="band 3">
        <r>  0.0344  0.1055  0.7561 </r>
       </set>
       <set comment="band 4">
        <r>  0.0016  0.0245  0.9168 </r>
       </set>
       <set comment="band 5">
        <r>  0.0036  0.0019  0.9670 </r>
       </set>
       <set comment="band 6">
        <r>  0.2742  0.2346  0.3316 </r>
       </set>
       <set comment="band 7">
        <r>  0.2661  0.3390  0.1342 </r>
       </set>
       <set comment="band 8">
        <r>  0.1136  0.3977  0.2402 </r>
       </set>
       <set comment="band 9">
        <r>  0.0023  0.4147  0.2193 </r>
       </set>
       <set comment="band 10">
        <r>  0.0240  0.1479  0.2177 </r>
       </set>
       <set comment="band 11">
        <r>  0.0299  0.1153  0.1993 </r>
       </set>
       <set comment="band 12">
        <r>  0.0525  0.0237  0.2343 </r>
       </set>
      </set>
      <set comment="kpoint 94">
       <set comment="band 1">
        <r>  0.1685  0.0417  0.6522 </r>
       </set>
       <set comment="band 2">
        <r>  0.0085  0.0723  0.7949 </r>
       </set>
       <set comment="band 3">
        <r>  0.0803  0.0841  0.7281 </r>
       </set>
       <set comment="band 4">
        <r>  0.0000  0.0107  0.9344 </r>
       </set>
       <set comment="band 5">
        <r>  0.0000  0.0006  0.9782 </r>
       </set>
       <set comment="band 6">
        <r>  0.1428  0.1875  0.5449 </r>
       </set>
       <set comment="band 7">
        <r>  0.2709  0.3045  0.1727 </r>
       </set>
       <set comment="band 8">
        <r>  0.0490  0.2674  0.2272 </r>
       </set>
       <set comment="band 9">
        <r>  0.0000  0.5209  0.1023 </r>
       </set>
       <set comment="band 10">
        <r>  0.0485  0.1653  0.1970 </r>
       </set>
       <set comment="band 11">
        <r>  0.0442  0.2115  0.1365 </r>
       </set>
       <set comment="band 12">
        <r>  0.0000  0.0086  0.1947 </r>
       </set>
      </set>
      <set comment="kpoint 95">
       <set comment="band 1">
        <r>  0.0852  0.0385  0.7552 </r>
       </set>
       <set comment="band 2">
        <r>  0.0008  0.0688  0.8068 </r>
       </set>
       <set comment="band 3">
        <r>  0.0629  0.0891  0.7410 </r>
       </set>
       <set comment="band 4">
        <r>  0.0012  0.0293  0.9102 </r>
       </set>
       <set comment="band 5">
        <r>  0.0011  0.0064  0.9631 </r>
       </set>
       <set comment="band 6">
        <r>  0.2165  0.2099  0.4329 </r>
       </set>
       <set comment="band 7">
        <r>  0.2787  0.3157  0.1502 </r>
       </set>
       <set comment="band 8">
        <r>  0.0958  0.4521  0.1804 </r>
       </set>
       <set comment="band 9">
        <r>  0.0032  0.3296  0.2618 </r>
       </set>
       <set comment="band 10">
        <r>  0.0202  0.1916  0.1446 </r>
       </set>
       <set comment="band 11">
        <r>  0.0116  0.1185  0.1997 </r>
       </set>
       <set comment="band 12">
        <r>  0.0776  0.0356  0.2816 </r>
       </set>
      </set>
      <set comment="kpoint 96">
       <set comment="band 1">
        <r>  0.0063  0.0529  0.8026 </r>
       </set>
       <set comment="band 2">
        <r>  0.0106  0.0711  0.8210 </r>
       </set>
       <set comment="band 3">
        <r>  0.0346  0.0911  0.7692 </r>
       </set>
       <set comment="band 4">
        <r>  0.0167  0.0169  0.9021 </r>
       </set>
       <set comment="band 5">
        <r>  0.0011  0.0049  0.9671 </r>
       </set>
       <set comment="band 6">
        <r>  0.3789  0.1842  0.2580 </r>
       </set>
       <set comment="band 7">
        <r>  0.1925  0.3797  0.1846 </r>
       </set>
       <set comment="band 8">
        <r>  0.1026  0.4668  0.1865 </r>
       </set>
       <set comment="band 9">
        <r>  0.0084  0.3292  0.3281 </r>
       </set>
       <set comment="band 10">
        <r>  0.0028  0.1931  0.1164 </r>
       </set>
       <set comment="band 11">
        <r>  0.0001  0.0451  0.2567 </r>
       </set>
       <set comment="band 12">
        <r>  0.0473  0.1555  0.2352 </r>
       </set>
      </set>
      <set comment="kpoint 97">
       <set comment="band 1">
        <r>  0.0044  0.0509  0.8047 </r>
       </set>
       <set comment="band 2">
        <r>  0.0031  0.0737  0.8271 </r>
       </set>
       <set comment="band 3">
        <r>  0.0052  0.0964  0.8001 </r>
       </set>
       <set comment="band 4">
        <r>  0.0382  0.0044  0.8888 </r>
       </set>
       <set comment="band 5">
        <r>  0.0002  0.0014  0.9778 </r>
       </set>
       <set comment="band 6">
        <r>  0.5436  0.1090  0.1565 </r>
       </set>
       <set comment="band 7">
        <r>  0.0839  0.4757  0.2040 </r>
       </set>
       <set comment="band 8">
        <r>  0.0728  0.4872  0.1961 </r>
       </set>
       <set comment="band 9">
        <r>  0.0000  0.3264  0.3536 </r>
       </set>
       <set comment="band 10">
        <r>  0.0032  0.1042  0.2309 </r>
       </set>
       <set comment="band 11">
        <r>  0.0020  0.0799  0.2017 </r>
       </set>
       <set comment="band 12">
        <r>  0.0223  0.2215  0.1551 </r>
       </set>
      </set>
      <set comment="kpoint 98">
       <set comment="band 1">
        <r>  0.0609  0.0083  0.8176 </r>
       </set>
       <set comment="band 2">
        <r>  0.0006  0.0789  0.7951 </r>
       </set>
       <set comment="band 3">
        <r>  0.0333  0.1261  0.7339 </r>
       </set>
       <set comment="band 4">
        <r>  0.0000  0.0129  0.9352 </r>
       </set>
       <set comment="band 5">
        <r>  0.0000  0.0001  0.9755 </r>
       </set>
       <set comment="band 6">
        <r>  0.2226  0.2638  0.3590 </r>
       </set>
       <set comment="band 7">
        <r>  0.3066  0.3152  0.1094 </r>
       </set>
       <set comment="band 8">
        <r>  0.1054  0.3499  0.2888 </r>
       </set>
       <set comment="band 9">
        <r>  0.0000  0.5371  0.0941 </r>
       </set>
       <set comment="band 10">
        <r>  0.0448  0.0726  0.3043 </r>
       </set>
       <set comment="band 11">
        <r>  0.0724  0.1062  0.2235 </r>
       </set>
       <set comment="band 12">
        <r>  0.0000  0.0023  0.1512 </r>
       </set>
      </set>
      <set comment="kpoint 99">
       <set comment="band 1">
        <r>  0.0345  0.0154  0.8303 </r>
       </set>
       <set comment="band 2">
        <r>  0.0003  0.0793  0.8039 </r>
       </set>
       <set comment="band 3">
        <r>  0.0049  0.1201  0.7751 </r>
       </set>
       <set comment="band 4">
        <r>  0.0120  0.0128  0.9184 </r>
       </set>
       <set comment="band 5">
        <r>  0.0009  0.0029  0.9702 </r>
       </set>
       <set comment="band 6">
        <r>  0.4976  0.1358  0.1725 </r>
       </set>
       <set comment="band 7">
        <r>  0.0692  0.4811  0.2120 </r>
       </set>
       <set comment="band 8">
        <r>  0.1171  0.3653  0.2810 </r>
       </set>
       <set comment="band 9">
        <r>  0.0063  0.4399  0.2041 </r>
       </set>
       <set comment="band 10">
        <r>  0.0261  0.1254  0.2738 </r>
       </set>
       <set comment="band 11">
        <r>  0.0614  0.1215  0.2098 </r>
       </set>
       <set comment="band 12">
        <r>  0.0115  0.0202  0.1637 </r>
       </set>
      </set>
      <set comment="kpoint 100">
       <set comment="band 1">
        <r>  0.0468  0.0009  0.8394 </r>
       </set>
       <set comment="band 2">
        <r>  0.0001  0.0818  0.7947 </r>
       </set>
       <set comment="band 3">
        <r>  0.0043  0.1374  0.7567 </r>
       </set>
       <set comment="band 4">
        <r>  0.0000  0.0134  0.9372 </r>
       </set>
       <set comment="band 5">
        <r>  0.0000  0.0001  0.9718 </r>
       </set>
       <set comment="band 6">
        <r>  0.5043  0.1318  0.1621 </r>
       </set>
       <set comment="band 7">
        <r>  0.0472  0.4921  0.2251 </r>
       </set>
       <set comment="band 8">
        <r>  0.1266  0.3257  0.3161 </r>
       </set>
       <set comment="band 9">
        <r>  0.0000  0.5405  0.0947 </r>
       </set>
       <set comment="band 10">
        <r>  0.0464  0.0612  0.3464 </r>
       </set>
       <set comment="band 11">
        <r>  0.0818  0.0888  0.2369 </r>
       </set>
       <set comment="band 12">
        <r>  0.0000  0.0003  0.1277 </r>
       </set>
      </set>
      <set comment="kpoint 101">
       <set comment="band 1">
        <r>  0.3343  0.0319  0.4633 </r>
       </set>
       <set comment="band 2">
        <r>  0.0000  0.0007  0.9450 </r>
       </set>
       <set comment="band 3">
        <r>  0.0000  0.0007  0.9450 </r>
       </set>
       <set comment="band 4">
        <r>  0.1460  0.2764  0.3671 </r>
       </set>
       <set comment="band 5">
        <r>  0.0000  0.0025  0.9637 </r>
       </set>
       <set comment="band 6">
        <r>  0.0000  0.0025  0.9637 </r>
       </set>
       <set comment="band 7">
        <r>  0.2454  0.2706  0.2396 </r>
       </set>
       <set comment="band 8">
        <r>  0.0001  0.0276  0.0310 </r>
       </set>
       <set comment="band 9">
        <r>  0.0000  0.5157  0.0758 </r>
       </set>
       <set comment="band 10">
        <r>  0.0000  0.5157  0.0758 </r>
       </set>
       <set comment="band 11">
        <r>  0.0659  0.0873  0.1223 </r>
       </set>
       <set comment="band 12">
        <r>  0.0000  0.0000  0.3812 </r>
       </set>
      </set>
      <set comment="kpoint 102">
       <set comment="band 1">
        <r>  0.2616  0.0330  0.5544 </r>
       </set>
       <set comment="band 2">
        <r>  0.0005  0.0049  0.9306 </r>
       </set>
       <set comment="band 3">
        <r>  0.0000  0.0009  0.9421 </r>
       </set>
       <set comment="band 4">
        <r>  0.0825  0.2313  0.5073 </r>
       </set>
       <set comment="band 5">
        <r>  0.0000  0.0025  0.9601 </r>
       </set>
       <set comment="band 6">
        <r>  0.0839  0.1060  0.7265 </r>
       </set>
       <set comment="band 7">
        <r>  0.2840  0.2516  0.2465 </r>
       </set>
       <set comment="band 8">
        <r>  0.0042  0.1309  0.1298 </r>
       </set>
       <set comment="band 9">
        <r>  0.0227  0.3883  0.0363 </r>
       </set>
       <set comment="band 10">
        <r>  0.0000  0.4953  0.0881 </r>
       </set>
       <set comment="band 11">
        <r>  0.0163  0.0375  0.2340 </r>
       </set>
       <set comment="band 12">
        <r>  0.0000  0.0223  0.4957 </r>
       </set>
      </set>
      <set comment="kpoint 103">
       <set comment="band 1">
        <r>  0.1700  0.0509  0.6493 </r>
       </set>
       <set comment="band 2">
        <r>  0.0007  0.0269  0.8786 </r>
       </set>
       <set comment="band 3">
        <r>  0.0268  0.1781  0.6508 </r>
       </set>
       <set comment="band 4">
        <r>  0.0000  0.0065  0.9341 </r>
       </set>
       <set comment="band 5">
        <r>  0.0000  0.0018  0.9600 </r>
       </set>
       <set comment="band 6">
        <r>  0.2119  0.1560  0.5012 </r>
       </set>
       <set comment="band 7">
        <r>  0.2686  0.2735  0.2440 </r>
       </set>
       <set comment="band 8">
        <r>  0.0540  0.4067  0.2210 </r>
       </set>
       <set comment="band 9">
        <r>  0.0177  0.0996  0.0954 </r>
       </set>
       <set comment="band 10">
        <r>  0.0000  0.4990  0.1515 </r>
       </set>
       <set comment="band 11">
        <r>  0.0059  0.0406  0.1407 </r>
       </set>
       <set comment="band 12">
        <r>  0.0000  0.0069  0.3623 </r>
       </set>
      </set>
      <set comment="kpoint 104">
       <set comment="band 1">
        <r>  0.0680  0.0091  0.8209 </r>
       </set>
       <set comment="band 2">
        <r>  0.0125  0.1228  0.7192 </r>
       </set>
       <set comment="band 3">
        <r>  0.0001  0.1186  0.7794 </r>
       </set>
       <set comment="band 4">
        <r>  0.0000  0.0131  0.9292 </r>
       </set>
       <set comment="band 5">
        <r>  0.0000  0.0003  0.9645 </r>
       </set>
       <set comment="band 6">
        <r>  0.4009  0.1445  0.2624 </r>
       </set>
       <set comment="band 7">
        <r>  0.1169  0.3911  0.2854 </r>
       </set>
       <set comment="band 8">
        <r>  0.1338  0.3689  0.2548 </r>
       </set>
       <set comment="band 9">
        <r>  0.0000  0.5202  0.1429 </r>
       </set>
       <set comment="band 10">
        <r>  0.0264  0.0681  0.2446 </r>
       </set>
       <set comment="band 11">
        <r>  0.0003  0.0440  0.0524 </r>
       </set>
       <set comment="band 12">
        <r>  0.0000  0.0003  0.2070 </r>
       </set>
      </set>
      <set comment="kpoint 105">
       <set comment="band 1">
        <r>  0.2255  0.0214  0.6149 </r>
       </set>
       <set comment="band 2">
        <r>  0.0003  0.0050  0.9250 </r>
       </set>
       <set comment="band 3">
        <r>  0.0000  0.0040  0.9395 </r>
       </set>
       <set comment="band 4">
        <r>  0.0492  0.1980  0.5994 </r>
       </set>
       <set comment="band 5">
        <r>  0.0000  0.0005  0.9766 </r>
       </set>
       <set comment="band 6">
        <r>  0.0904  0.2246  0.5402 </r>
       </set>
       <set comment="band 7">
        <r>  0.3441  0.1966  0.2722 </r>
       </set>
       <set comment="band 8">
        <r>  0.0009  0.0391  0.0663 </r>
       </set>
       <set comment="band 9">
        <r>  0.0000  0.5148  0.0682 </r>
       </set>
       <set comment="band 10">
        <r>  0.0329  0.4436  0.1124 </r>
       </set>
       <set comment="band 11">
        <r>  0.0000  0.0028  0.3707 </r>
       </set>
       <set comment="band 12">
        <r>  0.0046  0.0095  0.4875 </r>
       </set>
      </set>
      <set comment="kpoint 106">
       <set comment="band 1">
        <r>  0.1663  0.0377  0.6690 </r>
       </set>
       <set comment="band 2">
        <r>  0.0001  0.0159  0.8934 </r>
       </set>
       <set comment="band 3">
        <r>  0.0041  0.0546  0.8604 </r>
       </set>
       <set comment="band 4">
        <r>  0.0133  0.1277  0.7458 </r>
       </set>
       <set comment="band 5">
        <r>  0.0007  0.0045  0.9647 </r>
       </set>
       <set comment="band 6">
        <r>  0.1332  0.2741  0.4255 </r>
       </set>
       <set comment="band 7">
        <r>  0.3662  0.1809  0.2718 </r>
       </set>
       <set comment="band 8">
        <r>  0.0372  0.3965  0.1710 </r>
       </set>
       <set comment="band 9">
        <r>  0.0248  0.2517  0.1691 </r>
       </set>
       <set comment="band 10">
        <r>  0.0021  0.3577  0.0301 </r>
       </set>
       <set comment="band 11">
        <r>  0.0080  0.0185  0.3716 </r>
       </set>
       <set comment="band 12">
        <r>  0.0012  0.0123  0.3075 </r>
       </set>
      </set>
      <set comment="kpoint 107">
       <set comment="band 1">
        <r>  0.0848  0.0400  0.7654 </r>
       </set>
       <set comment="band 2">
        <r>  0.0077  0.0614  0.8052 </r>
       </set>
       <set comment="band 3">
        <r>  0.0002  0.1291  0.7598 </r>
       </set>
       <set comment="band 4">
        <r>  0.0018  0.0168  0.9210 </r>
       </set>
       <set comment="band 5">
        <r>  0.0051  0.0012  0.9617 </r>
       </set>
       <set comment="band 6">
        <r>  0.3536  0.1874  0.2696 </r>
       </set>
       <set comment="band 7">
        <r>  0.1837  0.3281  0.2902 </r>
       </set>
       <set comment="band 8">
        <r>  0.0986  0.4164  0.2151 </r>
       </set>
       <set comment="band 9">
        <r>  0.0133  0.3626  0.2315 </r>
       </set>
       <set comment="band 10">
        <r>  0.0043  0.2148  0.1008 </r>
       </set>
       <set comment="band 11">
        <r>  0.0023  0.0211  0.2713 </r>
       </set>
       <set comment="band 12">
        <r>  0.0006  0.0099  0.1455 </r>
       </set>
      </set>
      <set comment="kpoint 108">
       <set comment="band 1">
        <r>  0.1346  0.0322  0.7145 </r>
       </set>
       <set comment="band 2">
        <r>  0.0021  0.0408  0.8494 </r>
       </set>
       <set comment="band 3">
        <r>  0.0098  0.1528  0.7159 </r>
       </set>
       <set comment="band 4">
        <r>  0.0000  0.0086  0.9331 </r>
       </set>
       <set comment="band 5">
        <r>  0.0000  0.0003  0.9739 </r>
       </set>
       <set comment="band 6">
        <r>  0.0219  0.4285  0.3348 </r>
       </set>
       <set comment="band 7">
        <r>  0.5012  0.0565  0.2908 </r>
       </set>
       <set comment="band 8">
        <r>  0.0578  0.3570  0.2174 </r>
       </set>
       <set comment="band 9">
        <r>  0.0000  0.5190  0.1042 </r>
       </set>
       <set comment="band 10">
        <r>  0.0261  0.1215  0.1374 </r>
       </set>
       <set comment="band 11">
        <r>  0.0070  0.0234  0.2990 </r>
       </set>
       <set comment="band 12">
        <r>  0.0000  0.0041  0.2997 </r>
       </set>
      </set>
      <set comment="kpoint 109">
       <set comment="band 1">
        <r>  0.2287  0.0029  0.6355 </r>
       </set>
       <set comment="band 2">
        <r>  0.0000  0.0001  0.9431 </r>
       </set>
       <set comment="band 3">
        <r>  0.0000  0.0001  0.9431 </r>
       </set>
       <set comment="band 4">
        <r>  0.0000  0.0004  0.9748 </r>
       </set>
       <set comment="band 5">
        <r>  0.0000  0.0004  0.9748 </r>
       </set>
       <set comment="band 6">
        <r>  0.0661  0.5446  0.0749 </r>
       </set>
       <set comment="band 7">
        <r>  0.4273  0.0927  0.3461 </r>
       </set>
       <set comment="band 8">
        <r>  0.0000  0.0243  0.0031 </r>
       </set>
       <set comment="band 9">
        <r>  0.0000  0.5109  0.0090 </r>
       </set>
       <set comment="band 10">
        <r>  0.0000  0.5109  0.0090 </r>
       </set>
       <set comment="band 11">
        <r>  0.0000  0.0005  0.5616 </r>
       </set>
       <set comment="band 12">
        <r>  0.0000  0.0005  0.5616 </r>
       </set>
      </set>
      <set comment="kpoint 110">
       <set comment="band 1">
        <r>  0.1988  0.0139  0.6592 </r>
       </set>
       <set comment="band 2">
        <r>  0.0000  0.0056  0.9247 </r>
       </set>
       <set comment="band 3">
        <r>  0.0000  0.0022  0.9398 </r>
       </set>
       <set comment="band 4">
        <r>  0.0012  0.2056  0.6538 </r>
       </set>
       <set comment="band 5">
        <r>  0.0000  0.0004  0.9737 </r>
       </set>
       <set comment="band 6">
        <r>  0.0177  0.4110  0.3494 </r>
       </set>
       <set comment="band 7">
        <r>  0.4905  0.0263  0.3706 </r>
       </set>
       <set comment="band 8">
        <r>  0.0023  0.0727  0.0791 </r>
       </set>
       <set comment="band 9">
        <r>  0.0256  0.4387  0.0552 </r>
       </set>
       <set comment="band 10">
        <r>  0.0000  0.5087  0.0494 </r>
       </set>
       <set comment="band 11">
        <r>  0.0123  0.0049  0.4440 </r>
       </set>
       <set comment="band 12">
        <r>  0.0000  0.0038  0.5075 </r>
       </set>
      </set>
     </set>
    </set>
   </array>
  </projected>
 </calculation>
 <structure name="finalpos" >
  <crystal>
   <varray name="basis" >
    <v>       0.00000000       2.00000000       2.00000000 </v>
    <v>       2.00000000       0.00000000       2.00000000 </v>
    <v>       2.00000000       2.00000000       0.00000000 </v>
   </varray>
   <i name="volume">     16.00000000 </i>
   <varray name="rec_basis" >
    <v>      -0.25000000       0.25000000       0.25000000 </v>
    <v>       0.25000000      -0.25000000       0.25000000 </v>
    <v>       0.25000000       0.25000000      -0.25000000 </v>
   </varray>
  </crystal>
  <varray name="positions" >
   <v>       0.00000000       0.00000000       0.00000000 </v>
  </varray>
 </structure>
</modeling>
