fcc Ni                                  
   3.52000000000000     
    -0.000000    0.499013    0.499013
     0.499013    0.000000    0.499013
     0.499013    0.499013   -0.000000
   Ni
     1
Direct
  0.000000  0.000000  0.000000
 
   28   28   28
  151.02      146.02      131.93      111.23      87.240      63.350      42.318      25.897      14.704      8.2985    
  5.4295      4.4192      3.8524      3.5015      3.3845      3.5015      3.8524      4.4192      5.4295      8.2985    
  14.704      25.897      42.318      63.350      87.240      111.23      131.93      146.02      146.02      136.48    
  119.12      96.870      73.112      50.918      32.527      19.098      10.686      6.4077      4.7611      4.0847    
  3.6268      3.3959      3.3959      3.6268      4.0847      4.7611      6.4077      10.686      19.098      32.527    
  50.918      73.112      96.870      119.12      136.48      146.02      131.93      119.12      100.29      78.491    
  56.820      37.818      23.087      13.167      7.6012      5.1783      4.3016      3.7594      3.4276      3.3175    
  3.4276      3.7594      4.3016      5.1783      7.6013      13.167      23.087      37.818      56.820      78.490    
  100.29      119.12      131.93      136.48      111.23      96.870      78.491      58.923      40.757      25.877    
  15.226      8.7707      5.6517      4.4860      3.8851      3.4725      3.2675      3.2675      3.4725      3.8851    
  4.4861      5.6517      8.7708      15.226      25.877      40.756      58.923      78.490      96.869      111.23    
  119.12      119.12      87.240      73.112      56.820      40.757      26.880      16.395      9.6277      6.0776    
  4.6415      3.9905      3.5212      3.2421      3.1506      3.2421      3.5212      3.9905      4.6416      6.0777    
  9.6278      16.395      26.880      40.756      56.820      73.112      87.240      96.869      100.29      96.870    
  63.350      50.918      37.818      25.877      16.395      9.9424      6.3315      4.7546      4.0656      3.5640    
  3.2337      3.0734      3.0734      3.2336      3.5640      4.0656      4.7547      6.3316      9.9425      16.395    
  25.877      37.818      50.918      63.349      73.112      78.490      78.490      73.112      42.318      32.527    
  23.087      15.226      9.6277      6.3315      4.7968      4.1045      3.5930      3.2340      3.0278      2.9613    
  3.0277      3.2339      3.5930      4.1045      4.7969      6.3315      9.6278      15.226      23.087      32.527    
  42.318      50.918      56.820      58.923      56.820      50.918      25.897      19.098      13.167      8.7707    
  6.0776      4.7546      4.1045      3.6033      3.2361      3.0049      2.8955      2.8954      3.0049      3.2360    
  3.6032      4.1045      4.7546      6.0776      8.7708      13.167      19.098      25.897      32.527      37.818    
  40.756      40.756      37.818      32.527      14.704      10.686      7.6012      5.6517      4.6415      4.0656    
  3.5930      3.2361      2.9981      2.8656      2.8235      2.8656      2.9981      3.2360      3.5930      4.0656    
  4.6415      5.6516      7.6012      10.686      14.704      19.098      23.087      25.877      26.880      25.877    
  23.087      19.098      8.2985      6.4077      5.1783      4.4860      3.9905      3.5640      3.2340      3.0049    
  2.8656      2.8009      2.8009      2.8656      3.0049      3.2340      3.5640      3.9904      4.4860      5.1782    
  6.4076      8.2985      10.686      13.167      15.226      16.395      16.395      15.226      13.167      10.686    
  5.4295      4.7611      4.3016      3.8851      3.5212      3.2337      3.0278      2.8955      2.8235      2.8009    
  2.8235      2.8955      3.0278      3.2337      3.5212      3.8850      4.3015      4.7610      5.4294      6.4076    
  7.6012      8.7708      9.6278      9.9425      9.6278      8.7708      7.6013      6.4077      4.4192      4.0847    
  3.7594      3.4725      3.2421      3.0734      2.9613      2.8954      2.8656      2.8656      2.8955      2.9613    
  3.0734      3.2421      3.4725      3.7594      4.0846      4.4191      4.7610      5.1782      5.6516      6.0776    
  6.3315      6.3316      6.0777      5.6517      5.1783      4.7611      3.8524      3.6268      3.4276      3.2675    
  3.1506      3.0734      3.0277      3.0049      2.9981      3.0049      3.0278      3.0734      3.1507      3.2676    
  3.4276      3.6268      3.8523      4.0846      4.3015      4.4860      4.6415      4.7546      4.7969      4.7547    
  4.6416      4.4861      4.3016      4.0847      3.5015      3.3959      3.3175      3.2675      3.2421      3.2336    
  3.2339      3.2360      3.2360      3.2340      3.2337      3.2421      3.2676      3.3175      3.3960      3.5016    
  3.6268      3.7594      3.8850      3.9904      4.0656      4.1045      4.1045      4.0656      3.9905      3.8851    
  3.7594      3.6268      3.3845      3.3959      3.4276      3.4725      3.5212      3.5640      3.5930      3.6032    
  3.5930      3.5640      3.5212      3.4725      3.4276      3.3960      3.3846      3.3960      3.4276      3.4725    
  3.5212      3.5640      3.5930      3.6032      3.5930      3.5640      3.5212      3.4725      3.4276      3.3959    
  3.5015      3.6268      3.7594      3.8851      3.9905      4.0656      4.1045      4.1045      4.0656      3.9904    
  3.8850      3.7594      3.6268      3.5016      3.3960      3.3175      3.2676      3.2421      3.2337      3.2340    
  3.2360      3.2360      3.2339      3.2336      3.2421      3.2675      3.3175      3.3959      3.8524      4.0847    
  4.3016      4.4861      4.6416      4.7547      4.7969      4.7546      4.6415      4.4860      4.3015      4.0846    
  3.8523      3.6268      3.4276      3.2676      3.1507      3.0734      3.0278      3.0049      2.9981      3.0049    
  3.0277      3.0734      3.1506      3.2675      3.4276      3.6268      4.4192      4.7611      5.1783      5.6517    
  6.0777      6.3316      6.3315      6.0776      5.6516      5.1782      4.7610      4.4191      4.0846      3.7594    
  3.4725      3.2421      3.0734      2.9613      2.8955      2.8656      2.8656      2.8954      2.9613      3.0734    
  3.2421      3.4725      3.7594      4.0847      5.4295      6.4077      7.6013      8.7708      9.6278      9.9425    
  9.6278      8.7708      7.6012      6.4076      5.4294      4.7610      4.3015      3.8850      3.5212      3.2337    
  3.0278      2.8955      2.8235      2.8009      2.8235      2.8955      3.0278      3.2337      3.5212      3.8851    
  4.3016      4.7611      8.2985      10.686      13.167      15.226      16.395      16.395      15.226      13.167    
  10.686      8.2985      6.4076      5.1782      4.4860      3.9904      3.5640      3.2340      3.0049      2.8656    
  2.8009      2.8009      2.8656      3.0049      3.2340      3.5640      3.9905      4.4860      5.1783      6.4077    
  14.704      19.098      23.087      25.877      26.880      25.877      23.087      19.098      14.704      10.686    
  7.6012      5.6516      4.6415      4.0656      3.5930      3.2360      2.9981      2.8656      2.8235      2.8656    
  2.9981      3.2361      3.5930      4.0656      4.6415      5.6517      7.6012      10.686      25.897      32.527    
  37.818      40.756      40.756      37.818      32.527      25.897      19.098      13.167      8.7708      6.0776    
  4.7546      4.1045      3.6032      3.2360      3.0049      2.8954      2.8955      3.0049      3.2361      3.6033    
  4.1045      4.7546      6.0776      8.7707      13.167      19.098      42.318      50.918      56.820      58.923    
  56.820      50.918      42.318      32.527      23.087      15.226      9.6278      6.3315      4.7969      4.1045    
  3.5930      3.2339      3.0277      2.9613      3.0278      3.2340      3.5930      4.1045      4.7968      6.3315    
  9.6277      15.226      23.087      32.527      63.350      73.112      78.490      78.490      73.112      63.349    
  50.918      37.818      25.877      16.395      9.9425      6.3316      4.7547      4.0656      3.5640      3.2336    
  3.0734      3.0734      3.2337      3.5640      4.0656      4.7546      6.3315      9.9424      16.395      25.877    
  37.818      50.918      87.240      96.870      100.29      96.869      87.240      73.112      56.820      40.756    
  26.880      16.395      9.6278      6.0777      4.6416      3.9905      3.5212      3.2421      3.1506      3.2421    
  3.5212      3.9905      4.6415      6.0776      9.6277      16.395      26.880      40.757      56.820      73.112    
  111.23      119.12      119.12      111.23      96.869      78.490      58.923      40.756      25.877      15.226    
  8.7708      5.6517      4.4861      3.8851      3.4725      3.2675      3.2675      3.4725      3.8851      4.4860    
  5.6517      8.7707      15.226      25.877      40.757      58.923      78.491      96.870      131.93      136.48    
  131.93      119.12      100.29      78.490      56.820      37.818      23.087      13.167      7.6013      5.1783    
  4.3016      3.7594      3.4276      3.3175      3.4276      3.7594      4.3016      5.1783      7.6012      13.167    
  23.087      37.818      56.820      78.491      100.29      119.12      146.02      146.02      136.48      119.12    
  96.870      73.112      50.918      32.527      19.098      10.686      6.4077      4.7611      4.0847      3.6268    
  3.3959      3.3959      3.6268      4.0847      4.7611      6.4077      10.686      19.098      32.527      50.918    
  73.112      96.870      119.12      136.48      146.02      136.48      119.12      96.870      73.112      50.918    
  32.527      19.098      10.686      6.4077      4.7611      4.0847      3.6268      3.3959      3.3959      3.6268    
  4.0847      4.7611      6.4077      10.686      19.098      32.527      50.918      73.112      96.870      119.12    
  136.48      146.02      136.48      123.20      103.70      81.159      58.768      39.140      23.908      13.618    
  7.8088      5.2557      4.3421      3.7934      3.4561      3.3439      3.4561      3.7934      4.3422      5.2558    
  7.8089      13.618      23.908      39.140      58.768      81.159      103.70      123.20      136.48      141.19    
  119.12      103.70      84.012      63.085      43.676      27.761      16.316      9.3100      5.8667      4.5722    
  3.9545      3.5292      3.3168      3.3168      3.5292      3.9546      4.5723      5.8668      9.3100      16.316    
  27.761      43.675      63.085      84.012      103.70      119.12      127.60      127.60      96.870      81.159    
  63.085      45.290      29.904      18.217      10.579      6.4834      4.7916      4.0945      3.6050      3.3109    
  3.2141      3.3109      3.6050      4.0945      4.7916      6.4835      10.579      18.217      29.904      45.290    
  63.085      81.159      96.869      107.60      111.42      107.60      73.112      58.768      43.676      29.904    
  18.901      11.307      6.9451      4.9823      4.2011      3.6725      3.3191      3.1462      3.1462      3.3191    
  3.6725      4.2011      4.9823      6.9452      11.307      18.901      29.904      43.675      58.768      73.112    
  84.402      90.634      90.634      84.403      50.918      39.140      27.761      18.217      11.307      7.1164    
  5.0961      4.2672      3.7226      3.3329      3.1065      3.0332      3.1065      3.3329      3.7226      4.2672    
  5.0961      7.1165      11.307      18.217      27.761      39.140      50.918      61.272      68.390      70.928    
  68.390      61.272      32.527      23.908      16.316      10.579      6.9451      5.0961      4.2894      3.7492    
  3.3446      3.0865      2.9633      2.9633      3.0865      3.3446      3.7492      4.2894      5.0961      6.9451    
  10.579      16.316      23.908      32.527      40.902      47.580      51.292      51.292      47.580      40.902    
  19.098      13.618      9.3100      6.4834      4.9823      4.2672      3.7492      3.3492      3.0787      2.9267    
  2.8782      2.9267      3.0786      3.3491      3.7491      4.2671      4.9822      6.4834      9.3100      13.618    
  19.098      25.012      30.347      34.070      35.406      34.070      30.347      25.012      10.686      7.8088    
  5.8667      4.7916      4.2011      3.7226      3.3446      3.0787      2.9154      2.8392      2.8392      2.9154    
  3.0786      3.3446      3.7226      4.2011      4.7916      5.8667      7.8088      10.686      14.212      17.811    
  20.771      22.442      22.442      20.771      17.811      14.212      6.4077      5.2557      4.5722      4.0945    
  3.6725      3.3329      3.0865      2.9267      2.8392      2.8117      2.8392      2.9267      3.0865      3.3329    
  3.6724      4.0944      4.5722      5.2557      6.4076      8.0677      10.029      11.906      13.263      13.759    
  13.263      11.906      10.029      8.0678      4.7611      4.3421      3.9545      3.6050      3.3191      3.1065    
  2.9633      2.8782      2.8392      2.8392      2.8782      2.9634      3.1066      3.3191      3.6050      3.9545    
  4.3421      4.7610      5.3421      6.1353      7.0316      7.8213      8.2851      8.2851      7.8214      7.0317    
  6.1354      5.3422      4.0847      3.7934      3.5292      3.3109      3.1462      3.0332      2.9633      2.9267    
  2.9154      2.9267      2.9634      3.0332      3.1463      3.3109      3.5292      3.7933      4.0846      4.3767    
  4.6583      4.9675      5.2823      5.5247      5.6163      5.5248      5.2823      4.9676      4.6584      4.3768    
  3.6268      3.4561      3.3168      3.2141      3.1462      3.1065      3.0865      3.0786      3.0786      3.0865    
  3.1066      3.1463      3.2142      3.3168      3.4561      3.6268      3.8166      4.0079      4.1825      4.3246    
  4.4258      4.4811      4.4811      4.4259      4.3247      4.1826      4.0080      3.8166      3.3959      3.3439    
  3.3168      3.3109      3.3191      3.3329      3.3446      3.3491      3.3446      3.3329      3.3191      3.3109    
  3.3168      3.3440      3.3960      3.4714      3.5633      3.6609      3.7520      3.8255      3.8728      3.8891    
  3.8728      3.8255      3.7521      3.6609      3.5633      3.4713      3.3959      3.4561      3.5292      3.6050    
  3.6725      3.7226      3.7492      3.7491      3.7226      3.6724      3.6050      3.5292      3.4561      3.3960    
  3.3565      3.3405      3.3455      3.3650      3.3904      3.4130      3.4260      3.4260      3.4129      3.3904    
  3.3650      3.3454      3.3404      3.3564      3.6268      3.7934      3.9546      4.0945      4.2011      4.2672    
  4.2894      4.2671      4.2011      4.0944      3.9545      3.7933      3.6268      3.4714      3.3405      3.2413    
  3.1746      3.1354      3.1159      3.1081      3.1062      3.1081      3.1159      3.1354      3.1745      3.2413    
  3.3404      3.4713      4.0847      4.3422      4.5723      4.7916      4.9823      5.0961      5.0961      4.9822    
  4.7916      4.5722      4.3421      4.0846      3.8166      3.5633      3.3455      3.1746      3.0525      2.9733    
  2.9280      2.9078      2.9078      2.9279      2.9732      3.0524      3.1745      3.3454      3.5633      3.8166    
  4.7611      5.2558      5.8668      6.4835      6.9452      7.1165      6.9451      6.4834      5.8667      5.2557    
  4.7610      4.3767      4.0079      3.6609      3.3650      3.1354      2.9733      2.8702      2.8147      2.7973    
  2.8146      2.8702      2.9732      3.1354      3.3650      3.6609      4.0080      4.3768      6.4077      7.8089    
  9.3100      10.579      11.307      11.307      10.579      9.3100      7.8088      6.4076      5.3421      4.6583    
  4.1825      3.7520      3.3904      3.1159      2.9280      2.8147      2.7623      2.7623      2.8146      2.9280    
  3.1159      3.3904      3.7521      4.1826      4.6584      5.3422      10.686      13.618      16.316      18.217    
  18.901      18.217      16.316      13.618      10.686      8.0677      6.1353      4.9675      4.3246      3.8255    
  3.4130      3.1081      2.9078      2.7973      2.7623      2.7973      2.9079      3.1082      3.4130      3.8255    
  4.3246      4.9675      6.1353      8.0678      19.098      23.908      27.761      29.904      29.904      27.761    
  23.908      19.098      14.212      10.029      7.0316      5.2823      4.4258      3.8728      3.4260      3.1062    
  2.9078      2.8146      2.8146      2.9079      3.1063      3.4261      3.8728      4.4258      5.2823      7.0316    
  10.029      14.212      32.527      39.140      43.675      45.290      43.675      39.140      32.527      25.012    
  17.811      11.906      7.8213      5.5247      4.4811      3.8891      3.4260      3.1081      2.9279      2.8702    
  2.9280      3.1082      3.4261      3.8892      4.4811      5.5247      7.8212      11.906      17.811      25.012    
  50.918      58.768      63.085      63.085      58.768      50.918      40.902      30.347      20.771      13.263    
  8.2851      5.6163      4.4811      3.8728      3.4129      3.1159      2.9732      2.9732      3.1159      3.4130    
  3.8728      4.4811      5.6163      8.2850      13.263      20.770      30.347      40.902      73.112      81.159    
  84.012      81.159      73.112      61.272      47.580      34.070      22.442      13.759      8.2851      5.5248    
  4.4259      3.8255      3.3904      3.1354      3.0524      3.1354      3.3904      3.8255      4.4258      5.5247    
  8.2850      13.758      22.442      34.070      47.580      61.272      96.870      103.70      103.70      96.869    
  84.402      68.390      51.292      35.406      22.442      13.263      7.8214      5.2823      4.3247      3.7521    
  3.3650      3.1745      3.1745      3.3650      3.7521      4.3246      5.2823      7.8212      13.263      22.442    
  35.406      51.292      68.390      84.403      119.12      123.20      119.12      107.60      90.634      70.928    
  51.292      34.070      20.771      11.906      7.0317      4.9676      4.1826      3.6609      3.3454      3.2413    
  3.3454      3.6609      4.1826      4.9675      7.0316      11.906      20.770      34.070      51.292      70.928    
  90.634      107.60      136.48      136.48      127.60      111.42      90.634      68.390      47.580      30.347    
  17.811      10.029      6.1354      4.6584      4.0080      3.5633      3.3404      3.3404      3.5633      4.0080    
  4.6584      6.1353      10.029      17.811      30.347      47.580      68.390      90.634      111.42      127.60    
  146.02      141.19      127.60      107.60      84.403      61.272      40.902      25.012      14.212      8.0678    
  5.3422      4.3768      3.8166      3.4713      3.3564      3.4713      3.8166      4.3768      5.3422      8.0678    
  14.212      25.012      40.902      61.272      84.403      107.60      127.60      141.19      131.93      119.12    
  100.29      78.491      56.820      37.818      23.087      13.167      7.6012      5.1783      4.3016      3.7594    
  3.4276      3.3175      3.4276      3.7594      4.3016      5.1783      7.6013      13.167      23.087      37.818    
  56.820      78.490      100.29      119.12      131.93      136.48      119.12      103.70      84.012      63.085    
  43.676      27.761      16.316      9.3100      5.8667      4.5722      3.9545      3.5292      3.3168      3.3168    
  3.5292      3.9546      4.5723      5.8668      9.3100      16.316      27.761      43.675      63.085      84.012    
  103.70      119.12      127.60      127.60      100.29      84.012      65.302      46.893      30.975      18.866    
  10.923      6.6324      4.8461      4.1300      3.6338      3.3347      3.2360      3.3347      3.6338      4.1300    
  4.8462      6.6325      10.923      18.866      30.975      46.893      65.302      84.011      100.29      111.42    
  115.38      111.42      78.491      63.085      46.893      32.120      20.291      12.075      7.2992      5.1142    
  4.2707      3.7291      3.3640      3.1846      3.1846      3.3640      3.7291      4.2707      5.1143      7.2992    
  12.075      20.291      32.120      46.893      63.085      78.490      90.634      97.343      97.343      90.634    
  56.820      43.676      30.975      20.291      12.492      7.6877      5.3170      4.3679      3.8044      3.3960    
  3.1570      3.0793      3.1570      3.3960      3.8044      4.3679      5.3171      7.6877      12.492      20.291    
  30.975      43.675      56.820      68.390      76.353      79.195      76.353      68.390      37.818      27.761    
  18.866      12.075      7.6877      5.3931      4.4186      3.8524      3.4226      3.1454      3.0124      3.0124    
  3.1454      3.4226      3.8524      4.4185      5.3931      7.6877      12.075      18.866      27.761      37.818    
  47.580      55.371      59.703      59.703      55.371      47.580      23.087      16.316      10.923      7.2992    
  5.3170      4.4186      3.8688      3.4375      3.1421      2.9750      2.9215      2.9750      3.1421      3.4374    
  3.8687      4.4185      5.3170      7.2992      10.923      16.316      23.087      30.347      36.881      41.438    
  43.074      41.438      36.881      30.347      13.167      9.3100      6.6324      5.1142      4.3679      3.8524    
  3.4375      3.1417      2.9587      2.8729      2.8729      2.9587      3.1417      3.4374      3.8523      4.3678    
  5.1142      6.6324      9.3100      13.167      17.811      22.508      26.350      28.517      28.517      26.350    
  22.508      17.811      7.6012      5.8667      4.8461      4.2707      3.8044      3.4226      3.1421      2.9587    
  2.8578      2.8259      2.8578      2.9587      3.1421      3.4226      3.8044      4.2707      4.8461      5.8667    
  7.6012      10.029      12.833      15.479      17.377      18.068      17.377      15.479      12.833      10.029    
  5.1783      4.5722      4.1300      3.7291      3.3960      3.1454      2.9750      2.8729      2.8259      2.8259    
  2.8729      2.9750      3.1454      3.3960      3.7291      4.1299      4.5722      5.1782      6.1353      7.4329    
  8.8641      10.102      10.822      10.822      10.102      8.8641      7.4330      6.1353      4.3016      3.9545    
  3.6338      3.3640      3.1570      3.0124      2.9215      2.8729      2.8578      2.8729      2.9215      3.0125    
  3.1571      3.3640      3.6338      3.9545      4.3015      4.6583      5.1048      5.6653      6.2448      6.6868    
  6.8525      6.6869      6.2448      5.6654      5.1048      4.6584      3.7594      3.5292      3.3347      3.1846    
  3.0793      3.0124      2.9750      2.9587      2.9587      2.9750      3.0125      3.0794      3.1847      3.3347    
  3.5292      3.7594      4.0079      4.2524      4.4727      4.6765      4.8532      4.9594      4.9595      4.8533    
  4.6766      4.4728      4.2525      4.0080      3.4276      3.3168      3.2360      3.1846      3.1570      3.1454    
  3.1421      3.1417      3.1421      3.1454      3.1571      3.1847      3.2361      3.3168      3.4276      3.5633    
  3.7127      3.8612      3.9935      4.0968      4.1620      4.1843      4.1621      4.0969      3.9936      3.8613    
  3.7127      3.5633      3.3175      3.3168      3.3347      3.3640      3.3960      3.4226      3.4374      3.4374    
  3.4226      3.3960      3.3640      3.3347      3.3168      3.3176      3.3405      3.3843      3.4430      3.5074    
  3.5671      3.6126      3.6371      3.6372      3.6126      3.5671      3.5075      3.4430      3.3842      3.3404    
  3.4276      3.5292      3.6338      3.7291      3.8044      3.8524      3.8687      3.8523      3.8044      3.7291    
  3.6338      3.5292      3.4276      3.3405      3.2756      3.2357      3.2185      3.2175      3.2247      3.2325    
  3.2358      3.2325      3.2247      3.2174      3.2184      3.2357      3.2755      3.3404      3.7594      3.9546    
  4.1300      4.2707      4.3679      4.4185      4.4185      4.3678      4.2707      4.1299      3.9545      3.7594    
  3.5633      3.3843      3.2357      3.1239      3.0477      3.0013      2.9765      2.9662      2.9662      2.9764    
  3.0012      3.0476      3.1238      3.2357      3.3842      3.5633      4.3016      4.5723      4.8462      5.1143    
  5.3171      5.3931      5.3170      5.1142      4.8461      4.5722      4.3015      4.0079      3.7127      3.4430    
  3.2185      3.0477      2.9291      2.8549      2.8154      2.8032      2.8154      2.8548      2.9290      3.0476    
  3.2184      3.4430      3.7127      4.0080      5.1783      5.8668      6.6325      7.2992      7.6877      7.6877    
  7.2992      6.6324      5.8667      5.1782      4.6583      4.2524      3.8612      3.5074      3.2175      3.0013    
  2.8549      2.7674      2.7272      2.7272      2.7674      2.8549      3.0012      3.2175      3.5075      3.8613    
  4.2525      4.6584      7.6013      9.3100      10.923      12.075      12.492      12.075      10.923      9.3100    
  7.6012      6.1353      5.1048      4.4727      3.9935      3.5671      3.2247      2.9765      2.8154      2.7272    
  2.6994      2.7272      2.8154      2.9765      3.2247      3.5672      3.9936      4.4728      5.1048      6.1354    
  13.167      16.316      18.866      20.291      20.291      18.866      16.316      13.167      10.029      7.4329    
  5.6653      4.6765      4.0968      3.6126      3.2325      2.9662      2.8032      2.7272      2.7272      2.8032    
  2.9662      3.2326      3.6127      4.0969      4.6765      5.6653      7.4330      10.029      23.087      27.761    
  30.975      32.120      30.975      27.761      23.087      17.811      12.833      8.8641      6.2448      4.8532    
  4.1620      3.6371      3.2358      2.9662      2.8154      2.7674      2.8154      2.9662      3.2358      3.6372    
  4.1621      4.8532      6.2447      8.8641      12.833      17.811      37.818      43.675      46.893      46.893    
  43.675      37.818      30.347      22.508      15.479      10.102      6.6868      4.9594      4.1843      3.6372    
  3.2325      2.9764      2.8548      2.8549      2.9765      3.2326      3.6372      4.1844      4.9594      6.6867    
  10.102      15.479      22.508      30.347      56.820      63.085      65.302      63.085      56.820      47.580    
  36.881      26.350      17.377      10.822      6.8525      4.9595      4.1621      3.6126      3.2247      3.0012    
  2.9290      3.0012      3.2247      3.6127      4.1621      4.9594      6.8524      10.822      17.377      26.350    
  36.881      47.580      78.490      84.012      84.011      78.490      68.390      55.371      41.438      28.517    
  18.068      10.822      6.6869      4.8533      4.0969      3.5671      3.2174      3.0476      3.0476      3.2175    
  3.5672      4.0969      4.8532      6.6867      10.822      18.068      28.517      41.438      55.371      68.390    
  100.29      103.70      100.29      90.634      76.353      59.703      43.074      28.517      17.377      10.102    
  6.2448      4.6766      3.9936      3.5075      3.2184      3.1238      3.2184      3.5075      3.9936      4.6765    
  6.2447      10.102      17.377      28.517      43.074      59.703      76.353      90.634      119.12      119.12    
  111.42      97.343      79.195      59.703      41.438      26.350      15.479      8.8641      5.6654      4.4728    
  3.8613      3.4430      3.2357      3.2357      3.4430      3.8613      4.4728      5.6653      8.8641      15.479    
  26.350      41.438      59.703      79.195      97.343      111.42      131.93      127.60      115.38      97.343    
  76.353      55.371      36.881      22.508      12.833      7.4330      5.1048      4.2525      3.7127      3.3842    
  3.2755      3.3842      3.7127      4.2525      5.1048      7.4330      12.833      22.508      36.881      55.371    
  76.353      97.343      115.38      127.60      136.48      127.60      111.42      90.634      68.390      47.580    
  30.347      17.811      10.029      6.1353      4.6584      4.0080      3.5633      3.3404      3.3404      3.5633    
  4.0080      4.6584      6.1354      10.029      17.811      30.347      47.580      68.390      90.634      111.42    
  127.60      136.48      111.23      96.870      78.491      58.923      40.757      25.877      15.226      8.7707    
  5.6517      4.4860      3.8851      3.4725      3.2675      3.2675      3.4725      3.8851      4.4861      5.6517    
  8.7708      15.226      25.877      40.756      58.923      78.490      96.869      111.23      119.12      119.12    
  96.870      81.159      63.085      45.290      29.904      18.217      10.579      6.4834      4.7916      4.0945    
  3.6050      3.3109      3.2141      3.3109      3.6050      4.0945      4.7916      6.4835      10.579      18.217    
  29.904      45.290      63.085      81.159      96.869      107.60      111.42      107.60      78.491      63.085    
  46.893      32.120      20.291      12.075      7.2992      5.1142      4.2707      3.7291      3.3640      3.1846    
  3.1846      3.3640      3.7291      4.2707      5.1143      7.2992      12.075      20.291      32.120      46.893    
  63.085      78.490      90.634      97.343      97.343      90.634      58.923      45.290      32.120      21.032    
  12.919      7.8965      5.3989      4.4023      3.8324      3.4178      3.1745      3.0952      3.1745      3.4178    