fcc Ni                                  
   3.52000000000000     
    -0.000000    0.499324    0.499324
     0.499324    0.000000    0.499324
     0.499324    0.499324   -0.000000
   Ni
     1
Direct
 -0.000000 -0.000000 -0.000000
 
   28   28   28
 0.15038127241E+03 0.14541592683E+03 0.13142507920E+03 0.11085482954E+03 0.87009149729E+02
 0.63242686153E+02 0.42300091915E+02 0.25927540550E+02 0.14745819193E+02 0.83278858499E+01
 0.54411024239E+01 0.44238082724E+01 0.38590658935E+01 0.35089239058E+01 0.33920511809E+01
 0.35089239058E+01 0.38590658935E+01 0.44238082724E+01 0.54411024239E+01 0.83278858499E+01
 0.14745819193E+02 0.25927540550E+02 0.42300091915E+02 0.63242686153E+02 0.87009149729E+02
 0.11085482954E+03 0.13142507920E+03 0.14541592683E+03 0.14541592683E+03 0.13594256938E+03
 0.11869595564E+03 0.96583866545E+02 0.72957204196E+02 0.50866701124E+02 0.32541355992E+02
 0.19138267054E+02 0.10722307833E+02 0.64270350822E+01 0.47667921120E+01 0.40906313762E+01
 0.36339631635E+01 0.34034237134E+01 0.34034208269E+01 0.36339556342E+01 0.40906220650E+01
 0.47667842646E+01 0.64270307814E+01 0.10722306967E+02 0.19138267290E+02 0.32541353814E+02
 0.50866693494E+02 0.72957190122E+02 0.96583847850E+02 0.11869593656E+03 0.13594255509E+03
 0.14541592153E+03 0.13142507920E+03 0.11869595564E+03 0.99983686023E+02 0.78307385201E+02
 0.56743648065E+02 0.37815669961E+02 0.23122233330E+02 0.13207192945E+02 0.76276545182E+01
 0.51878931953E+01 0.43066556379E+01 0.37662626014E+01 0.34349694454E+01 0.33249316877E+01
 0.34349567756E+01 0.37662424146E+01 0.43066359024E+01 0.51878810654E+01 0.76276530433E+01
 0.13207199609E+02 0.23122241112E+02 0.37815670499E+02 0.56743635553E+02 0.78307359308E+02
 0.99983652524E+02 0.11869592442E+03 0.13142506041E+03 0.13594255509E+03 0.11085482954E+03
 0.96583866545E+02 0.78307385201E+02 0.58836498859E+02 0.40744354157E+02 0.25907510618E+02
 0.15268151902E+02 0.88022903932E+01 0.56658159699E+01 0.44906985767E+01 0.38915046898E+01
 0.34797161273E+01 0.32748901901E+01 0.32748798034E+01 0.34796894057E+01 0.38914729866E+01
 0.44906751342E+01 0.56658100465E+01 0.88023031331E+01 0.15268175783E+02 0.25907532746E+02
 0.40744361984E+02 0.58836485838E+02 0.78307353880E+02 0.96583827743E+02 0.11085479791E+03
 0.11869592442E+03 0.11869593656E+03 0.87009149729E+02 0.72957204196E+02 0.56743648065E+02
 0.40744354157E+02 0.26907976241E+02 0.16437187564E+02 0.96621599796E+01 0.60953494304E+01
 0.46471108813E+01 0.39964732006E+01 0.35282079532E+01 0.32492993119E+01 0.31578433855E+01
 0.32492779734E+01 0.35281748941E+01 0.39964434657E+01 0.46470983866E+01 0.60953608919E+01
 0.96621919686E+01 0.16437227964E+02 0.26908009462E+02 0.40744367838E+02 0.56743638338E+02
 0.72957177229E+02 0.87009118890E+02 0.96583827743E+02 0.99983652524E+02 0.96583847850E+02
 0.63242686153E+02 0.50866701124E+02 0.37815669961E+02 0.25907510618E+02 0.16437187564E+02
 0.99777598831E+01 0.63511670129E+01 0.47613035629E+01 0.40712767778E+01 0.35708274133E+01
 0.32407391438E+01 0.30803979689E+01 0.30803903008E+01 0.32407199729E+01 0.35708065823E+01
 0.40712658800E+01 0.47613109186E+01 0.63511940371E+01 0.99778003963E+01 0.16437230318E+02
 0.25907543920E+02 0.37815686388E+02 0.50866700294E+02 0.63242674393E+02 0.72957177229E+02
 0.78307353880E+02 0.78307359308E+02 0.72957190122E+02 0.42300091915E+02 0.32541355992E+02
 0.23122233330E+02 0.15268151902E+02 0.96621599796E+01 0.63511670129E+01 0.48039540099E+01
 0.41099749263E+01 0.35997205432E+01 0.32409068497E+01 0.30345953104E+01 0.29680283978E+01
 0.30345941132E+01 0.32409064743E+01 0.35997241418E+01 0.41099853852E+01 0.48039726249E+01
 0.63511927871E+01 0.96621898281E+01 0.15268181659E+02 0.23122259121E+02 0.32541375399E+02
 0.42300104462E+02 0.50866700294E+02 0.56743638338E+02 0.58836485838E+02 0.56743635553E+02
 0.50866693494E+02 0.25927540550E+02 0.19138267054E+02 0.13207192945E+02 0.88022903932E+01
 0.60953494304E+01 0.47613035629E+01 0.41099749263E+01 0.36099125567E+01 0.32429153743E+01
 0.30115933742E+01 0.29019487076E+01 0.29019539981E+01 0.30116076860E+01 0.32429346810E+01
 0.36099320388E+01 0.41099909334E+01 0.47613150080E+01 0.60953580084E+01 0.88022995340E+01
 0.13207205967E+02 0.19138285340E+02 0.25927562561E+02 0.32541375399E+02 0.37815686388E+02
 0.40744367838E+02 0.40744361984E+02 0.37815670499E+02 0.32541353814E+02 0.14745819193E+02
 0.10722307833E+02 0.76276545182E+01 0.56658159699E+01 0.46471108813E+01 0.40712767778E+01
 0.35997205432E+01 0.32429153743E+01 0.30047420148E+01 0.28719717849E+01 0.28297547332E+01
 0.28719839910E+01 0.30047618833E+01 0.32429357434E+01 0.35997346492E+01 0.40712810590E+01
 0.46471063614E+01 0.56658076334E+01 0.76276489662E+01 0.10722310255E+02 0.14745830980E+02
 0.19138285340E+02 0.23122259121E+02 0.25907543920E+02 0.26908009462E+02 0.25907532746E+02
 0.23122241112E+02 0.19138267290E+02 0.83278858499E+01 0.64270350822E+01 0.51878931953E+01
 0.44906985767E+01 0.39964732006E+01 0.35708274133E+01 0.32409068497E+01 0.30115933742E+01
 0.28719717849E+01 0.28070735665E+01 0.28070756862E+01 0.28719770037E+01 0.30115987833E+01
 0.32409090844E+01 0.35708241883E+01 0.39964643913E+01 0.44906863673E+01 0.51878812204E+01
 0.64270269298E+01 0.83278835741E+01 0.10722310255E+02 0.13207205967E+02 0.15268181659E+02
 0.16437230318E+02 0.16437227964E+02 0.15268175783E+02 0.13207199609E+02 0.10722306967E+02
 0.54411024239E+01 0.47667921120E+01 0.43066556379E+01 0.38915046898E+01 0.35282079532E+01
 0.32407391438E+01 0.30345953104E+01 0.29019487076E+01 0.28297547332E+01 0.28070756862E+01
 0.28297470045E+01 0.29019350391E+01 0.30345786770E+01 0.32407227358E+01 0.35281942096E+01
 0.38914946919E+01 0.43066490614E+01 0.47667877021E+01 0.54410987497E+01 0.64270269298E+01
 0.76276489662E+01 0.88022995340E+01 0.96621898281E+01 0.99778003963E+01 0.96621919686E+01
 0.88023031331E+01 0.76276530433E+01 0.64270307814E+01 0.44238082724E+01 0.40906313762E+01
 0.37662626014E+01 0.34797161273E+01 0.32492993119E+01 0.30803979689E+01 0.29680283978E+01
 0.29019539981E+01 0.28719839910E+01 0.28719770037E+01 0.29019350391E+01 0.29680027549E+01
 0.30803723408E+01 0.32492795196E+01 0.34797052977E+01 0.37662604884E+01 0.40906350004E+01
 0.44238135183E+01 0.47667877021E+01 0.51878812204E+01 0.56658076334E+01 0.60953580084E+01
 0.63511927871E+01 0.63511940371E+01 0.60953608919E+01 0.56658100465E+01 0.51878810654E+01
 0.47667842646E+01 0.38590658935E+01 0.36339631635E+01 0.34349694454E+01 0.32748901901E+01
 0.31578433855E+01 0.30803903008E+01 0.30345941132E+01 0.30116076860E+01 0.30047618833E+01
 0.30115987833E+01 0.30345786770E+01 0.30803723408E+01 0.31578273514E+01 0.32748797145E+01
 0.34349664416E+01 0.36339675369E+01 0.38590758819E+01 0.40906350004E+01 0.43066490614E+01
 0.44906863673E+01 0.46471063614E+01 0.47613150080E+01 0.48039726249E+01 0.47613109186E+01
 0.46470983866E+01 0.44906751342E+01 0.43066359024E+01 0.40906220650E+01 0.35089239058E+01
 0.34034237134E+01 0.33249316877E+01 0.32748798034E+01 0.32492779734E+01 0.32407199729E+01
 0.32409064743E+01 0.32429346810E+01 0.32429357434E+01 0.32409090844E+01 0.32407227358E+01
 0.32492795196E+01 0.32748797145E+01 0.33249310214E+01 0.34034248109E+01 0.35089294892E+01
 0.36339675369E+01 0.37662604884E+01 0.38914946919E+01 0.39964643913E+01 0.40712810590E+01
 0.41099909334E+01 0.41099853852E+01 0.40712658800E+01 0.39964434657E+01 0.38914729866E+01
 0.37662424146E+01 0.36339556342E+01 0.33920511809E+01 0.34034208269E+01 0.34349567756E+01
 0.34796894057E+01 0.35281748941E+01 0.35708065823E+01 0.35997241418E+01 0.36099320388E+01
 0.35997346492E+01 0.35708241883E+01 0.35281942096E+01 0.34797052977E+01 0.34349664416E+01
 0.34034248109E+01 0.33920528968E+01 0.34034248109E+01 0.34349664416E+01 0.34797052977E+01
 0.35281942096E+01 0.35708241883E+01 0.35997346492E+01 0.36099320388E+01 0.35997241418E+01
 0.35708065823E+01 0.35281748941E+01 0.34796894057E+01 0.34349567756E+01 0.34034208269E+01
 0.35089239058E+01 0.36339556342E+01 0.37662424146E+01 0.38914729866E+01 0.39964434657E+01
 0.40712658800E+01 0.41099853852E+01 0.41099909334E+01 0.40712810590E+01 0.39964643913E+01
 0.38914946919E+01 0.37662604884E+01 0.36339675369E+01 0.35089294892E+01 0.34034248109E+01
 0.33249310214E+01 0.32748797145E+01 0.32492795196E+01 0.32407227358E+01 0.32409090844E+01
 0.32429357434E+01 0.32429346810E+01 0.32409064743E+01 0.32407199729E+01 0.32492779734E+01
 0.32748798034E+01 0.33249316877E+01 0.34034237134E+01 0.38590658935E+01 0.40906220650E+01
 0.43066359024E+01 0.44906751342E+01 0.46470983866E+01 0.47613109186E+01 0.48039726249E+01
 0.47613150080E+01 0.46471063614E+01 0.44906863673E+01 0.43066490614E+01 0.40906350004E+01
 0.38590758819E+01 0.36339675369E+01 0.34349664416E+01 0.32748797145E+01 0.31578273514E+01
 0.30803723408E+01 0.30345786770E+01 0.30115987833E+01 0.30047618833E+01 0.30116076860E+01
 0.30345941132E+01 0.30803903008E+01 0.31578433855E+01 0.32748901901E+01 0.34349694454E+01
 0.36339631635E+01 0.44238082724E+01 0.47667842646E+01 0.51878810654E+01 0.56658100465E+01
 0.60953608919E+01 0.63511940371E+01 0.63511927871E+01 0.60953580084E+01 0.56658076334E+01
 0.51878812204E+01 0.47667877021E+01 0.44238135183E+01 0.40906350004E+01 0.37662604884E+01
 0.34797052977E+01 0.32492795196E+01 0.30803723408E+01 0.29680027549E+01 0.29019350391E+01
 0.28719770037E+01 0.28719839910E+01 0.29019539981E+01 0.29680283978E+01 0.30803979689E+01
 0.32492993119E+01 0.34797161273E+01 0.37662626014E+01 0.40906313762E+01 0.54411024239E+01
 0.64270307814E+01 0.76276530433E+01 0.88023031331E+01 0.96621919686E+01 0.99778003963E+01
 0.96621898281E+01 0.88022995340E+01 0.76276489662E+01 0.64270269298E+01 0.54410987497E+01
 0.47667877021E+01 0.43066490614E+01 0.38914946919E+01 0.35281942096E+01 0.32407227358E+01
 0.30345786770E+01 0.29019350391E+01 0.28297470045E+01 0.28070756862E+01 0.28297547332E+01
 0.29019487076E+01 0.30345953104E+01 0.32407391438E+01 0.35282079532E+01 0.38915046898E+01
 0.43066556379E+01 0.47667921120E+01 0.83278858499E+01 0.10722306967E+02 0.13207199609E+02
 0.15268175783E+02 0.16437227964E+02 0.16437230318E+02 0.15268181659E+02 0.13207205967E+02
 0.10722310255E+02 0.83278835741E+01 0.64270269298E+01 0.51878812204E+01 0.44906863673E+01
 0.39964643913E+01 0.35708241883E+01 0.32409090844E+01 0.30115987833E+01 0.28719770037E+01
 0.28070756862E+01 0.28070735665E+01 0.28719717849E+01 0.30115933742E+01 0.32409068497E+01
 0.35708274133E+01 0.39964732006E+01 0.44906985767E+01 0.51878931953E+01 0.64270350822E+01
 0.14745819193E+02 0.19138267290E+02 0.23122241112E+02 0.25907532746E+02 0.26908009462E+02
 0.25907543920E+02 0.23122259121E+02 0.19138285340E+02 0.14745830980E+02 0.10722310255E+02
 0.76276489662E+01 0.56658076334E+01 0.46471063614E+01 0.40712810590E+01 0.35997346492E+01
 0.32429357434E+01 0.30047618833E+01 0.28719839910E+01 0.28297547332E+01 0.28719717849E+01
 0.30047420148E+01 0.32429153743E+01 0.35997205432E+01 0.40712767778E+01 0.46471108813E+01
 0.56658159699E+01 0.76276545182E+01 0.10722307833E+02 0.25927540550E+02 0.32541353814E+02
 0.37815670499E+02 0.40744361984E+02 0.40744367838E+02 0.37815686388E+02 0.32541375399E+02
 0.25927562561E+02 0.19138285340E+02 0.13207205967E+02 0.88022995340E+01 0.60953580084E+01
 0.47613150080E+01 0.41099909334E+01 0.36099320388E+01 0.32429346810E+01 0.30116076860E+01
 0.29019539981E+01 0.29019487076E+01 0.30115933742E+01 0.32429153743E+01 0.36099125567E+01
 0.41099749263E+01 0.47613035629E+01 0.60953494304E+01 0.88022903932E+01 0.13207192945E+02
 0.19138267054E+02 0.42300091915E+02 0.50866693494E+02 0.56743635553E+02 0.58836485838E+02
 0.56743638338E+02 0.50866700294E+02 0.42300104462E+02 0.32541375399E+02 0.23122259121E+02
 0.15268181659E+02 0.96621898281E+01 0.63511927871E+01 0.48039726249E+01 0.41099853852E+01
 0.35997241418E+01 0.32409064743E+01 0.30345941132E+01 0.29680283978E+01 0.30345953104E+01
 0.32409068497E+01 0.35997205432E+01 0.41099749263E+01 0.48039540099E+01 0.63511670129E+01
 0.96621599796E+01 0.15268151902E+02 0.23122233330E+02 0.32541355992E+02 0.63242686153E+02
 0.72957190122E+02 0.78307359308E+02 0.78307353880E+02 0.72957177229E+02 0.63242674393E+02
 0.50866700294E+02 0.37815686388E+02 0.25907543920E+02 0.16437230318E+02 0.99778003963E+01
 0.63511940371E+01 0.47613109186E+01 0.40712658800E+01 0.35708065823E+01 0.32407199729E+01
 0.30803903008E+01 0.30803979689E+01 0.32407391438E+01 0.35708274133E+01 0.40712767778E+01
 0.47613035629E+01 0.63511670129E+01 0.99777598831E+01 0.16437187564E+02 0.25907510618E+02
 0.37815669961E+02 0.50866701124E+02 0.87009149729E+02 0.96583847850E+02 0.99983652524E+02
 0.96583827743E+02 0.87009118890E+02 0.72957177229E+02 0.56743638338E+02 0.40744367838E+02
 0.26908009462E+02 0.16437227964E+02 0.96621919686E+01 0.60953608919E+01 0.46470983866E+01
 0.39964434657E+01 0.35281748941E+01 0.32492779734E+01 0.31578433855E+01 0.32492993119E+01
 0.35282079532E+01 0.39964732006E+01 0.46471108813E+01 0.60953494304E+01 0.96621599796E+01
 0.16437187564E+02 0.26907976241E+02 0.40744354157E+02 0.56743648065E+02 0.72957204196E+02
 0.11085482954E+03 0.11869593656E+03 0.11869592442E+03 0.11085479791E+03 0.96583827743E+02
 0.78307353880E+02 0.58836485838E+02 0.40744361984E+02 0.25907532746E+02 0.15268175783E+02
 0.88023031331E+01 0.56658100465E+01 0.44906751342E+01 0.38914729866E+01 0.34796894057E+01
 0.32748798034E+01 0.32748901901E+01 0.34797161273E+01 0.38915046898E+01 0.44906985767E+01
 0.56658159699E+01 0.88022903932E+01 0.15268151902E+02 0.25907510618E+02 0.40744354157E+02
 0.58836498859E+02 0.78307385201E+02 0.96583866545E+02 0.13142507920E+03 0.13594255509E+03
 0.13142506041E+03 0.11869592442E+03 0.99983652524E+02 0.78307359308E+02 0.56743635553E+02
 0.37815670499E+02 0.23122241112E+02 0.13207199609E+02 0.76276530433E+01 0.51878810654E+01
 0.43066359024E+01 0.37662424146E+01 0.34349567756E+01 0.33249316877E+01 0.34349694454E+01
 0.37662626014E+01 0.43066556379E+01 0.51878931953E+01 0.76276545182E+01 0.13207192945E+02
 0.23122233330E+02 0.37815669961E+02 0.56743648065E+02 0.78307385201E+02 0.99983686023E+02
 0.11869595564E+03 0.14541592683E+03 0.14541592153E+03 0.13594255509E+03 0.11869593656E+03
 0.96583847850E+02 0.72957190122E+02 0.50866693494E+02 0.32541353814E+02 0.19138267290E+02
 0.10722306967E+02 0.64270307814E+01 0.47667842646E+01 0.40906220650E+01 0.36339556342E+01
 0.34034208269E+01 0.34034237134E+01 0.36339631635E+01 0.40906313762E+01 0.47667921120E+01
 0.64270350822E+01 0.10722307833E+02 0.19138267054E+02 0.32541355992E+02 0.50866701124E+02
 0.72957204196E+02 0.96583866545E+02 0.11869595564E+03 0.13594256938E+03 0.14541592683E+03
 0.13594256938E+03 0.11869595564E+03 0.96583866545E+02 0.72957204196E+02 0.50866701124E+02
 0.32541355992E+02 0.19138267054E+02 0.10722307833E+02 0.64270350822E+01 0.47667921120E+01
 0.40906313762E+01 0.36339631635E+01 0.34034237134E+01 0.34034208269E+01 0.36339556342E+01
 0.40906220650E+01 0.47667842646E+01 0.64270307814E+01 0.10722306967E+02 0.19138267290E+02
 0.32541353814E+02 0.50866693494E+02 0.72957190122E+02 0.96583847850E+02 0.11869593656E+03
 0.13594255509E+03 0.14541592153E+03 0.13594256938E+03 0.12275148020E+03 0.10337842837E+03
 0.80962046246E+02 0.58683339164E+02 0.39133350235E+02 0.23941773539E+02 0.13658852410E+02
 0.78361797520E+01 0.52659819423E+01 0.43471031639E+01 0.38001674048E+01 0.34634427666E+01
 0.33513913398E+01 0.34634317337E+01 0.38001493545E+01 0.43470842699E+01 0.52659676657E+01
 0.78361722711E+01 0.13658849546E+02 0.23941769718E+02 0.39133339116E+02 0.58683316808E+02
 0.80962013420E+02 0.10337839093E+03 0.12275144727E+03 0.13594255009E+03 0.14062646742E+03
 0.11869595564E+03 0.10337842837E+03 0.83799406716E+02 0.62979923709E+02 0.43653323851E+02
 0.27787214953E+02 0.16358103028E+02 0.93432244622E+01 0.58824351034E+01 0.45770997365E+01
 0.39608638354E+01 0.35364357004E+01 0.33241770181E+01 0.33241678795E+01 0.35364115978E+01
 0.39608332287E+01 0.45770724525E+01 0.58824179489E+01 0.93432182024E+01 0.16358102113E+02
 0.27787210166E+02 0.43653306739E+02 0.62979890873E+02 0.83799362026E+02 0.10337838209E+03
 0.11869592068E+03 0.12712373817E+03 0.12712375118E+03 0.96583866545E+02 0.80962046246E+02
 0.62979923709E+02 0.45261787434E+02 0.29925080438E+02 0.18257840869E+02 0.10616164023E+02
 0.65038224130E+01 0.47981926790E+01 0.41002751299E+01 0.36119794644E+01 0.33181869720E+01
 0.32214093946E+01 0.33181654238E+01 0.36119441617E+01 0.41002382916E+01 0.47981656907E+01
 0.65038109853E+01 0.10616165895E+02 0.18257847074E+02 0.29925079571E+02 0.45261771070E+02
 0.62979890565E+02 0.80962003251E+02 0.96583826305E+02 0.10725136576E+03 0.11104400528E+03
 0.10725139005E+03 0.72957204196E+02 0.58683339164E+02 0.43653323851E+02 0.29925080438E+02
 0.18942049540E+02 0.11345044402E+02 0.69685406605E+01 0.49908426303E+01 0.42064049446E+01
 0.36792562155E+01 0.33262603022E+01 0.31534059158E+01 0.31533961513E+01 0.33262346089E+01
 0.36792238827E+01 0.42063770667E+01 0.49908275226E+01 0.69685405412E+01 0.11345054749E+02
 0.18942061367E+02 0.29925084465E+02 0.43653314736E+02 0.58683317937E+02 0.72957177856E+02
 0.84186915685E+02 0.90382966593E+02 0.90382974877E+02 0.84186937232E+02 0.50866701124E+02
 0.39133350235E+02 0.27787214953E+02 0.18257840869E+02 0.11345044402E+02 0.71408928073E+01
 0.51058705421E+01 0.42721292142E+01 0.37292000028E+01 0.33399242745E+01 0.31135455785E+01
 0.30401178283E+01 0.31135383178E+01 0.33399124188E+01 0.37291878412E+01 0.42721210044E+01
 0.51058689196E+01 0.71408978982E+01 0.11345053969E+02 0.18257851385E+02 0.27787223105E+02
 0.39133354214E+02 0.50866701151E+02 0.61174953004E+02 0.68257731579E+02 0.70782719228E+02
 0.68257733415E+02 0.61174955085E+02 0.32541355992E+02 0.23941773539E+02 0.16358103028E+02
 0.10616164023E+02 0.69685406605E+01 0.51058705421E+01 0.42943068163E+01 0.37556684798E+01
 0.33515723395E+01 0.30933618144E+01 0.29700504421E+01 0.29700542903E+01 0.30933718713E+01
 0.33515848130E+01 0.37556789848E+01 0.42943123613E+01 0.51058708941E+01 0.69685384632E+01
 0.10616163590E+02 0.16358108323E+02 0.23941786227E+02 0.32541374424E+02 0.40889053052E+02
 0.47542176041E+02 0.51237983440E+02 0.51237977827E+02 0.47542161041E+02 0.40889033436E+02
 0.19138267054E+02 0.13658852410E+02 0.93432244622E+01 0.65038224130E+01 0.49908426303E+01
 0.42721292142E+01 0.37556684798E+01 0.33560569996E+01 0.30854109761E+01 0.29332106403E+01
 0.28846147598E+01 0.29332267771E+01 0.30854370032E+01 0.33560830950E+01 0.37556854276E+01
 0.42721322832E+01 0.49908334713E+01 0.65038081614E+01 0.93432144524E+01 0.13658853946E+02
 0.19138282091E+02 0.25043491027E+02 0.30366564941E+02 0.34078718536E+02 0.35411066893E+02
 0.34078703250E+02 0.30366540447E+02 0.25043466843E+02 0.10722307833E+02 0.78361797520E+01
 0.58824351034E+01 0.47981926790E+01 0.42064049446E+01 0.37292000028E+01 0.33515723395E+01
 0.30854109761E+01 0.29218858035E+01 0.28454848896E+01 0.28454918651E+01 0.29219038698E+01
 0.30854327621E+01 0.33515890718E+01 0.37292051788E+01 0.42063969986E+01 0.47981755119E+01
 0.58824162771E+01 0.78361671570E+01 0.10722306292E+02 0.14252904313E+02 0.17852365077E+02
 0.20808977487E+02 0.22478334984E+02 0.22478329667E+02 0.20808964069E+02 0.17852350009E+02
 0.14252895037E+02 0.64270350822E+01 0.52659819423E+01 0.45770997365E+01 0.41002751299E+01
 0.36792562155E+01 0.33399242745E+01 0.30933618144E+01 0.29332106403E+01 0.28454848896E+01
 0.28178346474E+01 0.28454856485E+01 0.29332110580E+01 0.30933601946E+01 0.33399191153E+01
 0.36792469429E+01 0.41002624575E+01 0.45770854955E+01 0.52659684536E+01 0.64270243386E+01
 0.80962202563E+01 0.10064329805E+02 0.11945614014E+02 0.13304162310E+02 0.13799747786E+02
 0.13304162367E+02 0.11945615067E+02 0.10064333259E+02 0.80962272497E+01 0.47667921120E+01
 0.43471031639E+01 0.39608638354E+01 0.36119794644E+01 0.33262603022E+01 0.31135455785E+01
 0.29700504421E+01 0.28846147598E+01 0.28454918651E+01 0.28454856485E+01 0.28845978471E+01
 0.29700273857E+01 0.31135220420E+01 0.33262410121E+01 0.36119666510E+01 0.39608567727E+01
 0.43470989435E+01 0.47667872625E+01 0.53530788690E+01 0.61529533405E+01 0.70552562316E+01
 0.78491716634E+01 0.83150830779E+01 0.83150864522E+01 0.78491806122E+01 0.70552677798E+01
 0.61529641040E+01 0.53530866511E+01 0.40906313762E+01 0.38001674048E+01 0.35364357004E+01
 0.33181869720E+01 0.31534059158E+01 0.30401178283E+01 0.29700542903E+01 0.29332267771E+01
 0.29219038698E+01 0.29332110580E+01 0.29700273857E+01 0.30400871475E+01 0.31533790949E+01
 0.33181692877E+01 0.35364285479E+01 0.38001683723E+01 0.40906357788E+01 0.43815847405E+01
 0.46635452093E+01 0.49754689524E+01 0.52934727644E+01 0.55383055899E+01 0.56307402020E+01
 0.55383097537E+01 0.52934788471E+01 0.49754736688E+01 0.46635460659E+01 0.43815816030E+01
 0.36339631635E+01 0.34634427666E+01 0.33241770181E+01 0.32214093946E+01 0.31533961513E+01
 0.31135383178E+01 0.30933718713E+01 0.30854370032E+01 0.30854327621E+01 0.30933601946E+01
 0.31135220420E+01 0.31533790949E+01 0.32213953143E+01 0.33241686619E+01 0.34634413029E+01
 0.36339681119E+01 0.38233233078E+01 0.40141248852E+01 0.41879669555E+01 0.43293510407E+01
 0.44305159199E+01 0.44860738661E+01 0.44860716951E+01 0.44305096302E+01 0.43293413544E+01
 0.41879551961E+01 0.40141130034E+01 0.38233136977E+01 0.34034237134E+01 0.33513913398E+01
 0.33241678795E+01 0.33181654238E+01 0.33262346089E+01 0.33399124188E+01 0.33515848130E+01
 0.33560830950E+01 0.33515890718E+01 0.33399191153E+01 0.33262410121E+01 0.33181692877E+01
 0.33241686619E+01 0.33513906470E+01 0.34034247151E+01 0.34787307366E+01 0.35704559935E+01
 0.36678349909E+01 0.37586555416E+01 0.38317966403E+01 0.38789411091E+01 0.38951821242E+01
 0.38789301370E+01 0.38317778469E+01 0.37586340539E+01 0.36678160424E+01 0.35704431142E+01
 0.34787247161E+01 0.34034208269E+01 0.34634317337E+01 0.35364115978E+01 0.36119441617E+01
 0.36792238827E+01 0.37291878412E+01 0.37556789848E+01 0.37556854276E+01 0.37292051788E+01
 0.36792469429E+01 0.36119666510E+01 0.35364285479E+01 0.34634413029E+01 0.34034247151E+01
 0.33639347900E+01 0.33478155584E+01 0.33527214711E+01 0.33721332057E+01 0.33973726080E+01
 0.34198454912E+01 0.34328775617E+01 0.34328726721E+01 0.34198325056E+01 0.33973558366E+01
 0.33721176964E+01 0.33527108099E+01 0.33478103412E+01 0.33639324551E+01 0.36339556342E+01
 0.38001493545E+01 0.39608332287E+01 0.41002382916E+01 0.42063770667E+01 0.42721210044E+01
 0.42943123613E+01 0.42721322832E+01 0.42063969986E+01 0.41002624575E+01 0.39608567727E+01
 0.38001683723E+01 0.36339681119E+01 0.34787307366E+01 0.33478155584E+01 0.32486142734E+01
 0.31817652590E+01 0.31424297197E+01 0.31228119945E+01 0.31149430976E+01 0.31130229452E+01
 0.31149430647E+01 0.31228123271E+01 0.31424308233E+01 0.31817669844E+01 0.32486155200E+01
 0.33478143267E+01 0.34787247161E+01 0.40906220650E+01 0.43470842699E+01 0.45770724525E+01
 0.47981656907E+01 0.49908275226E+01 0.51058689196E+01 0.51058708941E+01 0.49908334713E+01
 0.47981755119E+01 0.45770854955E+01 0.43470989435E+01 0.40906357788E+01 0.38233233078E+01
 0.35704559935E+01 0.33527214711E+01 0.31817652590E+01 0.30594020998E+01 0.29800156796E+01
 0.29345212804E+01 0.29143250739E+01 0.29143300122E+01 0.29345347011E+01 0.29800338481E+01
 0.30594201229E+01 0.31817785750E+01 0.33527271267E+01 0.35704532962E+01 0.38233136977E+01
 0.47667842646E+01 0.52659676657E+01 0.58824179489E+01 0.65038109853E+01 0.69685405412E+01
 0.71408978982E+01 0.69685384632E+01 0.65038081614E+01 0.58824162771E+01 0.52659684536E+01
 0.47667872625E+01 0.43815847405E+01 0.40141248852E+01 0.36678349909E+01 0.33721332057E+01
 0.31424297197E+01 0.29800156796E+01 0.28766616624E+01 0.28208890746E+01 0.28034610310E+01
 0.28209004332E+01 0.28766812095E+01 0.29800382050E+01 0.31424497854E+01 0.33721469311E+01
 0.36678411340E+01 0.40141248522E+01 0.43815816030E+01 0.64270307814E+01 0.78361722711E+01
 0.93432182024E+01 0.10616165895E+02 0.11345054749E+02 0.11345053969E+02 0.10616163590E+02
 0.93432144524E+01 0.78361671570E+01 0.64270243386E+01 0.53530788690E+01 0.46635452093E+01
 0.41879669555E+01 0.37586555416E+01 0.33973726080E+01 0.31228119945E+01 0.29345212804E+01
 0.28208890746E+01 0.27683483836E+01 0.27683503732E+01 0.28208947695E+01 0.29345299278E+01
 0.31228225443E+01 0.33973839482E+01 0.37586667127E+01 0.41879772829E+01 0.46635543271E+01
 0.53530866511E+01 0.10722306967E+02 0.13658849546E+02 0.16358102113E+02 0.18257847074E+02
 0.18942061367E+02 0.18257851385E+02 0.16358108323E+02 0.13658853946E+02 0.10722306292E+02
 0.80962202563E+01 0.61529533405E+01 0.49754689524E+01 0.43293510407E+01 0.38317966403E+01
 0.34198454912E+01 0.31149430976E+01 0.29143250739E+01 0.28034610310E+01 0.27683503732E+01
 0.28034545292E+01 0.29143149171E+01 0.31149337755E+01 0.34198412440E+01 0.38317996863E+01
 0.43293606773E+01 0.49754819006E+01 0.61529651678E+01 0.80962272497E+01 0.19138267290E+02
 0.23941769718E+02 0.27787210166E+02 0.29925079571E+02 0.29925084465E+02 0.27787223105E+02
 0.23941786227E+02 0.19138282091E+02 0.14252904313E+02 0.10064329805E+02 0.70552562316E+01
 0.52934727644E+01 0.44305159199E+01 0.38789411091E+01 0.34328775617E+01 0.31130229452E+01
 0.29143300122E+01 0.28209004332E+01 0.28208947695E+01 0.29143149171E+01 0.31130033223E+01
 0.34328593046E+01 0.38789287187E+01 0.44305107750E+01 0.52934727771E+01 0.70552570136E+01
 0.10064326815E+02 0.14252895037E+02 0.32541353814E+02 0.39133339116E+02 0.43653306739E+02
 0.45261771070E+02 0.43653314736E+02 0.39133354214E+02 0.32541374424E+02 0.25043491027E+02
 0.17852365077E+02 0.11945614014E+02 0.78491716634E+01 0.55383055899E+01 0.44860738661E+01
 0.38951821242E+01 0.34328726721E+01 0.31149430647E+01 0.29345347011E+01 0.28766812095E+01
 0.29345299278E+01 0.31149337755E+01 0.34328593046E+01 0.38951651837E+01 0.44860538449E+01
 0.55382829708E+01 0.78491470205E+01 0.11945588171E+02 0.17852339247E+02 0.25043466843E+02
 0.50866693494E+02 0.58683316808E+02 0.62979890873E+02 0.62979890565E+02 0.58683317937E+02
 0.50866701151E+02 0.40889053052E+02 0.30366564941E+02 0.20808977487E+02 0.13304162310E+02
 0.83150830779E+01 0.56307402020E+01 0.44860716951E+01 0.38789301370E+01 0.34198325056E+01
 0.31228123271E+01 0.29800338481E+01 0.29800382050E+01 0.31228225443E+01 0.34198412440E+01
 0.38789287187E+01 0.44860538449E+01 0.56307048108E+01 0.83150348434E+01 0.13304110026E+02
 0.20808930749E+02 0.30366530695E+02 0.40889033436E+02 0.72957190122E+02 0.80962013420E+02
 0.83799362026E+02 0.80962003251E+02 0.72957177856E+02 0.61174953004E+02 0.47542176041E+02
 0.34078718536E+02 0.22478334984E+02 0.13799747786E+02 0.83150864522E+01 0.55383097537E+01
 0.44305096302E+01 0.38317778469E+01 0.33973558366E+01 0.31424308233E+01 0.30594201229E+01
 0.31424497854E+01 0.33973839482E+01 0.38317996863E+01 0.44305107750E+01 0.55382829708E+01
 0.83150348434E+01 0.13799683586E+02 0.22478274581E+02 0.34078675908E+02 0.47542157427E+02
 0.61174955085E+02 0.96583847850E+02 0.10337839093E+03 0.10337838209E+03 0.96583826305E+02
 0.84186915685E+02 0.68257731579E+02 0.51237983440E+02 0.35411066893E+02 0.22478329667E+02
 0.13304162367E+02 0.78491806122E+01 0.52934788471E+01 0.43293413544E+01 0.37586340539E+01
 0.33721176964E+01 0.31817669844E+01 0.31817785750E+01 0.33721469311E+01 0.37586667127E+01
 0.43293606773E+01 0.52934727771E+01 0.78491470205E+01 0.13304110026E+02 0.22478274581E+02
 0.35411025611E+02 0.51237966257E+02 0.68257738568E+02 0.84186937232E+02 0.11869593656E+03
 0.12275144727E+03 0.11869592068E+03 0.10725136576E+03 0.90382966593E+02 0.70782719228E+02
 0.51237977827E+02 0.34078703250E+02 0.20808964069E+02 0.11945615067E+02 0.70552677798E+01
 0.49754736688E+01 0.41879551961E+01 0.36678160424E+01 0.33527108099E+01 0.32486155200E+01
 0.33527271267E+01 0.36678411340E+01 0.41879772829E+01 0.49754819006E+01 0.70552570136E+01
 0.11945588171E+02 0.20808930749E+02 0.34078675908E+02 0.51237966257E+02 0.70782726457E+02
 0.90382987677E+02 0.10725139005E+03 0.13594255509E+03 0.13594255009E+03 0.12712373817E+03
 0.11104400528E+03 0.90382974877E+02 0.68257733415E+02 0.47542161041E+02 0.30366540447E+02
 0.17852350009E+02 0.10064333259E+02 0.61529641040E+01 0.46635460659E+01 0.40141130034E+01
 0.35704431142E+01 0.33478103412E+01 0.33478143267E+01 0.35704532962E+01 0.40141248522E+01
 0.46635543271E+01 0.61529651678E+01 0.10064326815E+02 0.17852339247E+02 0.30366530695E+02
 0.47542157427E+02 0.68257738568E+02 0.90382987677E+02 0.11104402122E+03 0.12712375118E+03
 0.14541592153E+03 0.14062646742E+03 0.12712375118E+03 0.10725139005E+03 0.84186937232E+02
 0.61174955085E+02 0.40889033436E+02 0.25043466843E+02 0.14252895037E+02 0.80962272497E+01
 0.53530866511E+01 0.43815816030E+01 0.38233136977E+01 0.34787247161E+01 0.33639324551E+01
 0.34787247161E+01 0.38233136977E+01 0.43815816030E+01 0.53530866511E+01 0.80962272497E+01
 0.14252895037E+02 0.25043466843E+02 0.40889033436E+02 0.61174955085E+02 0.84186937232E+02
 0.10725139005E+03 0.12712375118E+03 0.14062646742E+03 0.13142507920E+03 0.11869595564E+03
 0.99983686023E+02 0.78307385201E+02 0.56743648065E+02 0.37815669961E+02 0.23122233330E+02
 0.13207192945E+02 0.76276545182E+01 0.51878931953E+01 0.43066556379E+01 0.37662626014E+01
 0.34349694454E+01 0.33249316877E+01 0.34349567756E+01 0.37662424146E+01 0.43066359024E+01
 0.51878810654E+01 0.76276530433E+01 0.13207199609E+02 0.23122241112E+02 0.37815670499E+02
 0.56743635553E+02 0.78307359308E+02 0.99983652524E+02 0.11869592442E+03 0.13142506041E+03
 0.13594255509E+03 0.11869595564E+03 0.10337842837E+03 0.83799406716E+02 0.62979923709E+02
 0.43653323851E+02 0.27787214953E+02 0.16358103028E+02 0.93432244622E+01 0.58824351034E+01
 0.45770997365E+01 0.39608638354E+01 0.35364357004E+01 0.33241770181E+01 0.33241678795E+01
 0.35364115978E+01 0.39608332287E+01 0.45770724525E+01 0.58824179489E+01 0.93432182024E+01
 0.16358102113E+02 0.27787210166E+02 0.43653306739E+02 0.62979890873E+02 0.83799362026E+02
 0.10337838209E+03 0.11869592068E+03 0.12712373817E+03 0.12712375118E+03 0.99983686023E+02
 0.83799406716E+02 0.65186666276E+02 0.46859250704E+02 0.30993835650E+02 0.18906544038E+02