   1   1   0   0
  0.1090355E+02  0.2489016E-09  0.2489016E-09  0.2489016E-09  0.5000000E-15
  1.000000000000000E-004
  CAR 
 fcc Ni                                  
     56.05616574     -2.20776679  301      9.41180146      1.00000000
     -2.208  0.0000E+00  0.0000E+00  0.0000E+00  0.0000E+00
     -2.014  0.0000E+00  0.0000E+00  0.0000E+00  0.0000E+00
     -1.819  0.0000E+00  0.0000E+00  0.0000E+00  0.0000E+00
     -1.625  0.0000E+00  0.0000E+00  0.0000E+00  0.0000E+00
     -1.431  0.0000E+00  0.0000E+00  0.0000E+00  0.0000E+00
     -1.237 -0.5197E-35 -0.1388E-33 -0.1009E-35 -0.2697E-34
     -1.042 -0.3106E-28 -0.5665E-27 -0.6032E-29 -0.1100E-27
     -0.848 -0.2770E-22 -0.3446E-21 -0.5379E-23 -0.6692E-22
     -0.654 -0.3551E-17 -0.3005E-16 -0.6898E-18 -0.5837E-17
     -0.460 -0.6827E-13 -0.3917E-12 -0.1326E-13 -0.7609E-13
     -0.266 -0.1880E-09 -0.7273E-09 -0.3653E-10 -0.1413E-09
     -0.071 -0.7069E-07 -0.1811E-06 -0.1377E-07 -0.3531E-07
      0.123 -0.3066E-05 -0.4780E-05 -0.6093E-06 -0.9637E-06
      0.317  0.1098E-05  0.1337E-04 -0.3961E-06  0.1634E-05
      0.511  0.1101E-03  0.1384E-03  0.2098E-04  0.2852E-04
      0.705  0.3089E-03  0.3660E-03  0.8097E-04  0.9960E-04
      0.900  0.4788E-03  0.4735E-03  0.1740E-03  0.1916E-03
      1.094  0.4833E-03  0.4931E-03  0.2678E-03  0.2873E-03
      1.288  0.6026E-03  0.6379E-03  0.3849E-03  0.4112E-03
      1.482  0.8588E-03  0.9052E-03  0.5516E-03  0.5870E-03
      1.676  0.8222E-03  0.7312E-03  0.7113E-03  0.7290E-03
      1.871  0.5647E-03  0.6034E-03  0.8210E-03  0.8462E-03
      2.065  0.1038E-02  0.1111E-02  0.1023E-02  0.1062E-02
      2.259  0.1484E-02  0.1460E-02  0.1311E-02  0.1346E-02
      2.453  0.8680E-03  0.7544E-03  0.1480E-02  0.1492E-02
      2.648  0.9104E-03  0.9647E-03  0.1656E-02  0.1680E-02
      2.842  0.1592E-02  0.1574E-02  0.1966E-02  0.1985E-02
      3.036  0.1436E-02  0.1388E-02  0.2244E-02  0.2255E-02
      3.230  0.1536E-02  0.1440E-02  0.2543E-02  0.2534E-02
      3.424  0.1772E-02  0.1721E-02  0.2887E-02  0.2869E-02
      3.619  0.1941E-02  0.1748E-02  0.3264E-02  0.3208E-02
      3.813  0.1644E-02  0.1542E-02  0.3583E-02  0.3508E-02
      4.007  0.2506E-02  0.2012E-02  0.4070E-02  0.3898E-02
      4.201  0.3305E-02  0.2890E-02  0.4712E-02  0.4460E-02
      4.395  0.2954E-02  0.2494E-02  0.5285E-02  0.4944E-02
      4.590  0.4665E-02  0.2418E-02  0.6191E-02  0.5414E-02
      4.784  0.8481E-02  0.3646E-02  0.7838E-02  0.6122E-02
      4.978  0.9994E-02  0.5629E-02  0.9779E-02  0.7215E-02
      5.172  0.1162E-01  0.7043E-02  0.1204E-01  0.8583E-02
      5.367  0.1438E-01  0.9397E-02  0.1483E-01  0.1041E-01
      5.561  0.1836E-01  0.1067E-01  0.1839E-01  0.1248E-01
      5.755  0.2002E-01  0.9310E-02  0.2228E-01  0.1429E-01
      5.949  0.1813E-01  0.1329E-01  0.2580E-01  0.1687E-01
      6.143  0.1667E-01  0.1647E-01  0.2904E-01  0.2007E-01
      6.338  0.1713E-01  0.1771E-01  0.3237E-01  0.2351E-01
      6.532  0.2089E-01  0.1655E-01  0.3642E-01  0.2672E-01
      6.726  0.2424E-01  0.1604E-01  0.4113E-01  0.2984E-01
      6.920  0.2567E-01  0.1582E-01  0.4612E-01  0.3291E-01
      7.114  0.3212E-01  0.1956E-01  0.5236E-01  0.3671E-01
      7.309  0.3327E-01  0.2333E-01  0.5882E-01  0.4124E-01
      7.503  0.2380E-01  0.2429E-01  0.6344E-01  0.4595E-01
      7.697  0.1900E-01  0.2814E-01  0.6713E-01  0.5142E-01
      7.891  0.2336E-01  0.2900E-01  0.7167E-01  0.5705E-01
      8.086  0.2724E-01  0.2712E-01  0.7696E-01  0.6232E-01
      8.280  0.2786E-01  0.2112E-01  0.8237E-01  0.6642E-01
      8.474  0.2522E-01  0.2059E-01  0.8726E-01  0.7042E-01
      8.668  0.3292E-01  0.2541E-01  0.9366E-01  0.7536E-01
      8.862  0.4206E-01  0.2587E-01  0.1018E+00  0.8038E-01
      9.057  0.1646E-01  0.2266E-01  0.1050E+00  0.8478E-01
      9.251  0.4334E-02  0.2213E-01  0.1059E+00  0.8908E-01
      9.445  0.2109E-02  0.3033E-01  0.1063E+00  0.9497E-01
      9.639  0.3193E-02  0.3568E-01  0.1069E+00  0.1019E+00
      9.833  0.4387E-02  0.1889E-01  0.1077E+00  0.1056E+00
     10.028  0.2772E-02  0.4662E-02  0.1083E+00  0.1065E+00
     10.222  0.2511E-02  0.2505E-02  0.1088E+00  0.1070E+00
     10.416  0.2873E-02  0.4828E-02  0.1093E+00  0.1079E+00
     10.610  0.3079E-02  0.3505E-02  0.1099E+00  0.1086E+00
     10.805  0.2701E-02  0.2346E-02  0.1105E+00  0.1090E+00
     10.999  0.2463E-02  0.3522E-02  0.1109E+00  0.1097E+00
     11.193  0.2588E-02  0.3503E-02  0.1114E+00  0.1104E+00
     11.387  0.3780E-02  0.3130E-02  0.1122E+00  0.1110E+00
     11.581  0.2753E-02  0.2352E-02  0.1127E+00  0.1115E+00
     11.776  0.1023E-02  0.3837E-02  0.1129E+00  0.1122E+00
     11.970  0.2884E-02  0.2941E-02  0.1135E+00  0.1128E+00
     12.164  0.1970E-02  0.1748E-02  0.1138E+00  0.1131E+00
     12.358  0.2920E-02  0.2579E-02  0.1144E+00  0.1136E+00
     12.552  0.2928E-02  0.2252E-02  0.1150E+00  0.1141E+00
     12.747  0.3056E-02  0.3805E-02  0.1156E+00  0.1148E+00
     12.941  0.2307E-02  0.2583E-02  0.1160E+00  0.1153E+00
     13.135  0.4681E-03  0.2690E-02  0.1161E+00  0.1158E+00
     13.329  0.1339E-02  0.1580E-02  0.1164E+00  0.1161E+00
     13.523  0.2037E-02  0.6605E-03  0.1168E+00  0.1163E+00
     13.718  0.3012E-02  0.2152E-02  0.1174E+00  0.1167E+00
     13.912  0.2524E-02  0.2693E-02  0.1178E+00  0.1172E+00
     14.106  0.1612E-02  0.2658E-02  0.1182E+00  0.1177E+00
     14.300  0.3175E-03  0.2250E-02  0.1182E+00  0.1181E+00
     14.495  0.1481E-02  0.2844E-03  0.1185E+00  0.1182E+00
     14.689  0.1191E-02  0.1091E-02  0.1187E+00  0.1184E+00
     14.883  0.1178E-02  0.1623E-02  0.1190E+00  0.1187E+00
     15.077  0.1369E-02  0.1241E-02  0.1192E+00  0.1190E+00
     15.271  0.2675E-02  0.1164E-02  0.1198E+00  0.1192E+00
     15.466  0.2228E-02  0.1557E-02  0.1202E+00  0.1195E+00
     15.660  0.2741E-02  0.1688E-02  0.1207E+00  0.1198E+00
     15.854  0.2412E-02  0.3190E-02  0.1212E+00  0.1204E+00
     16.048  0.4017E-02  0.2319E-02  0.1220E+00  0.1209E+00
     16.242  0.3704E-02  0.3839E-02  0.1227E+00  0.1216E+00
     16.437  0.1630E-02  0.4600E-02  0.1230E+00  0.1225E+00
     16.631  0.2792E-02  0.1923E-02  0.1235E+00  0.1229E+00
     16.825  0.2398E-02  0.2649E-02  0.1240E+00  0.1234E+00
     17.019  0.2919E-02  0.2396E-02  0.1246E+00  0.1239E+00
     17.214  0.2671E-02  0.3055E-02  0.1251E+00  0.1245E+00
     17.408  0.2407E-02  0.2908E-02  0.1256E+00  0.1250E+00
     17.602  0.2766E-02  0.2553E-02  0.1261E+00  0.1255E+00
     17.796  0.1369E-02  0.2764E-02  0.1264E+00  0.1261E+00
     17.990  0.2263E-02  0.1461E-02  0.1268E+00  0.1264E+00
     18.185  0.2931E-02  0.2104E-02  0.1274E+00  0.1268E+00
     18.379  0.1643E-02  0.2862E-02  0.1277E+00  0.1273E+00
     18.573  0.2248E-02  0.2067E-02  0.1281E+00  0.1277E+00
     18.767  0.1699E-02  0.2080E-02  0.1285E+00  0.1281E+00
     18.961  0.3767E-02  0.1900E-02  0.1292E+00  0.1285E+00
     19.156  0.3495E-02  0.3524E-02  0.1299E+00  0.1292E+00
     19.350  0.2733E-02  0.3407E-02  0.1304E+00  0.1298E+00
     19.544  0.3301E-02  0.3074E-02  0.1310E+00  0.1304E+00
     19.738  0.3799E-02  0.3347E-02  0.1318E+00  0.1311E+00
     19.933  0.3915E-02  0.3815E-02  0.1325E+00  0.1318E+00
     20.127  0.2342E-02  0.4075E-02  0.1330E+00  0.1326E+00
     20.321  0.1575E-02  0.2063E-02  0.1333E+00  0.1330E+00
     20.515  0.4038E-02  0.2102E-02  0.1341E+00  0.1334E+00
     20.709  0.5218E-02  0.4562E-02  0.1351E+00  0.1343E+00
     20.904  0.3005E-02  0.4851E-02  0.1357E+00  0.1353E+00
     21.098  0.3543E-02  0.2770E-02  0.1364E+00  0.1358E+00
     21.292  0.5045E-02  0.4247E-02  0.1374E+00  0.1366E+00
     21.486  0.3997E-02  0.4953E-02  0.1381E+00  0.1376E+00
     21.680  0.2960E-02  0.3808E-02  0.1387E+00  0.1383E+00
     21.875  0.2013E-02  0.2467E-02  0.1391E+00  0.1388E+00
     22.069  0.2841E-02  0.2395E-02  0.1396E+00  0.1393E+00
     22.263  0.5020E-02  0.3795E-02  0.1406E+00  0.1400E+00
     22.457  0.4721E-02  0.5258E-02  0.1415E+00  0.1410E+00
     22.652  0.3045E-02  0.4011E-02  0.1421E+00  0.1418E+00
     22.846  0.2867E-02  0.2671E-02  0.1427E+00  0.1423E+00
     23.040  0.3570E-02  0.3387E-02  0.1434E+00  0.1430E+00
     23.234  0.4466E-02  0.3727E-02  0.1442E+00  0.1437E+00
     23.428  0.6165E-02  0.5638E-02  0.1454E+00  0.1448E+00
     23.623  0.3264E-02  0.5222E-02  0.1461E+00  0.1458E+00
     23.817  0.1425E-02  0.2219E-02  0.1464E+00  0.1463E+00
     24.011  0.3922E-02  0.2051E-02  0.1471E+00  0.1466E+00
     24.205  0.6827E-02  0.6148E-02  0.1484E+00  0.1478E+00
     24.399  0.5054E-02  0.6004E-02  0.1494E+00  0.1490E+00
     24.594  0.4872E-02  0.5008E-02  0.1504E+00  0.1500E+00
     24.788  0.2336E-02  0.3615E-02  0.1508E+00  0.1507E+00
     24.982  0.2381E-02  0.1824E-02  0.1513E+00  0.1510E+00
     25.176  0.5553E-02  0.4471E-02  0.1524E+00  0.1519E+00
     25.370  0.4719E-02  0.5416E-02  0.1533E+00  0.1530E+00
     25.565  0.4377E-02  0.4463E-02  0.1541E+00  0.1538E+00
     25.759  0.3796E-02  0.4037E-02  0.1549E+00  0.1546E+00
     25.953  0.3765E-02  0.3188E-02  0.1556E+00  0.1552E+00
     26.147  0.3686E-02  0.4402E-02  0.1563E+00  0.1561E+00
     26.342  0.3348E-02  0.3007E-02  0.1570E+00  0.1567E+00
     26.536  0.4166E-02  0.3966E-02  0.1578E+00  0.1574E+00
     26.730  0.4376E-02  0.4565E-02  0.1586E+00  0.1583E+00
     26.924  0.5078E-02  0.4877E-02  0.1596E+00  0.1593E+00
     27.118  0.4342E-02  0.4637E-02  0.1605E+00  0.1602E+00
     27.313  0.3083E-02  0.3621E-02  0.1611E+00  0.1609E+00
     27.507  0.1966E-02  0.2116E-02  0.1614E+00  0.1613E+00
     27.701  0.3809E-02  0.2914E-02  0.1622E+00  0.1619E+00
     27.895  0.4513E-02  0.5097E-02  0.1631E+00  0.1628E+00
     28.089  0.1526E-02  0.2249E-02  0.1633E+00  0.1633E+00
     28.284  0.1680E-02  0.1213E-02  0.1637E+00  0.1635E+00
     28.478  0.4683E-02  0.3872E-02  0.1646E+00  0.1643E+00
     28.672  0.3955E-02  0.4562E-02  0.1654E+00  0.1652E+00
     28.866  0.3663E-02  0.3720E-02  0.1661E+00  0.1659E+00
     29.061  0.3395E-02  0.3573E-02  0.1667E+00  0.1666E+00
     29.255  0.2984E-02  0.3035E-02  0.1673E+00  0.1672E+00
     29.449  0.3206E-02  0.3131E-02  0.1679E+00  0.1678E+00
     29.643  0.2852E-02  0.2673E-02  0.1685E+00  0.1683E+00
     29.837  0.2275E-02  0.2235E-02  0.1689E+00  0.1687E+00
     30.032  0.4489E-02  0.4456E-02  0.1698E+00  0.1696E+00
     30.226  0.4348E-02  0.4821E-02  0.1706E+00  0.1705E+00
     30.420  0.2234E-02  0.2196E-02  0.1711E+00  0.1709E+00
     30.614  0.2751E-02  0.2596E-02  0.1716E+00  0.1715E+00
     30.808  0.4120E-02  0.3679E-02  0.1724E+00  0.1722E+00
     31.003  0.4860E-02  0.5131E-02  0.1733E+00  0.1732E+00
     31.197  0.4623E-02  0.4666E-02  0.1742E+00  0.1741E+00
     31.391  0.5172E-02  0.5052E-02  0.1752E+00  0.1751E+00
     31.585  0.3742E-02  0.4271E-02  0.1760E+00  0.1759E+00
     31.780  0.6489E-02  0.5564E-02  0.1772E+00  0.1770E+00
     31.974  0.4940E-02  0.5707E-02  0.1782E+00  0.1781E+00
     32.168  0.3227E-02  0.3999E-02  0.1788E+00  0.1788E+00
     32.362  0.4812E-02  0.3971E-02  0.1798E+00  0.1796E+00
     32.556  0.6470E-02  0.6574E-02  0.1810E+00  0.1809E+00
     32.751  0.2241E-02  0.2694E-02  0.1814E+00  0.1814E+00
     32.945  0.3935E-02  0.3399E-02  0.1822E+00  0.1821E+00
     33.139  0.6693E-02  0.6470E-02  0.1835E+00  0.1833E+00
     33.333  0.8017E-02  0.7529E-02  0.1851E+00  0.1848E+00
     33.527  0.6336E-02  0.7073E-02  0.1863E+00  0.1862E+00
     33.722  0.4120E-02  0.4443E-02  0.1871E+00  0.1870E+00
     33.916  0.5127E-02  0.4652E-02  0.1881E+00  0.1879E+00
     34.110  0.4856E-02  0.5008E-02  0.1890E+00  0.1889E+00
     34.304  0.3344E-02  0.3435E-02  0.1897E+00  0.1896E+00
     34.499  0.3906E-02  0.3348E-02  0.1904E+00  0.1902E+00
     34.693  0.7513E-02  0.6956E-02  0.1919E+00  0.1916E+00
     34.887  0.6775E-02  0.7186E-02  0.1932E+00  0.1930E+00
     35.081  0.5099E-02  0.5886E-02  0.1942E+00  0.1941E+00
     35.275  0.3343E-02  0.3922E-02  0.1949E+00  0.1949E+00
     35.470  0.3552E-02  0.3064E-02  0.1956E+00  0.1955E+00
     35.664  0.4305E-02  0.4357E-02  0.1964E+00  0.1963E+00
     35.858  0.2467E-02  0.2570E-02  0.1969E+00  0.1968E+00
     36.052  0.2702E-02  0.2568E-02  0.1974E+00  0.1973E+00
     36.246  0.3412E-02  0.2757E-02  0.1981E+00  0.1979E+00
     36.441  0.4169E-02  0.4155E-02  0.1989E+00  0.1987E+00
     36.635  0.3034E-02  0.3996E-02  0.1995E+00  0.1994E+00
     36.829  0.5012E-02  0.3865E-02  0.2004E+00  0.2002E+00
     37.023  0.4896E-02  0.4918E-02  0.2014E+00  0.2011E+00
     37.217  0.3001E-02  0.3564E-02  0.2020E+00  0.2018E+00
     37.412  0.3171E-02  0.2837E-02  0.2026E+00  0.2024E+00
     37.606  0.2422E-02  0.2494E-02  0.2030E+00  0.2029E+00
     37.800  0.1217E-02  0.1858E-02  0.2033E+00  0.2032E+00
     37.994  0.1628E-02  0.1652E-02  0.2036E+00  0.2035E+00
     38.189  0.3792E-02  0.3409E-02  0.2043E+00  0.2042E+00
     38.383  0.5549E-02  0.5583E-02  0.2054E+00  0.2053E+00
     38.577  0.4157E-02  0.4450E-02  0.2062E+00  0.2062E+00
     38.771  0.3562E-02  0.3368E-02  0.2069E+00  0.2068E+00
     38.965  0.5826E-02  0.4496E-02  0.2080E+00  0.2077E+00
     39.160  0.7121E-02  0.6683E-02  0.2094E+00  0.2090E+00
     39.354  0.6548E-02  0.7533E-02  0.2107E+00  0.2104E+00
     39.548  0.5617E-02  0.6183E-02  0.2118E+00  0.2116E+00
     39.742  0.6010E-02  0.6094E-02  0.2130E+00  0.2128E+00
     39.936  0.5491E-02  0.5893E-02  0.2140E+00  0.2140E+00
     40.131  0.4282E-02  0.4135E-02  0.2149E+00  0.2148E+00
     40.325  0.7533E-02  0.7211E-02  0.2163E+00  0.2162E+00
     40.519  0.5421E-02  0.5610E-02  0.2174E+00  0.2173E+00
     40.713  0.2752E-02  0.2736E-02  0.2179E+00  0.2178E+00
     40.908  0.3426E-02  0.3593E-02  0.2186E+00  0.2185E+00
     41.102  0.4554E-02  0.4916E-02  0.2195E+00  0.2195E+00
     41.296  0.2838E-02  0.2477E-02  0.2200E+00  0.2199E+00
     41.490  0.3643E-02  0.3356E-02  0.2207E+00  0.2206E+00
     41.684  0.4805E-02  0.5305E-02  0.2216E+00  0.2216E+00
     41.879  0.3984E-02  0.4055E-02  0.2224E+00  0.2224E+00
     42.073  0.4561E-02  0.4280E-02  0.2233E+00  0.2232E+00
     42.267  0.3296E-02  0.3701E-02  0.2239E+00  0.2240E+00
     42.461  0.4198E-02  0.4163E-02  0.2248E+00  0.2248E+00
     42.655  0.3256E-02  0.2692E-02  0.2254E+00  0.2253E+00
     42.850  0.2957E-02  0.3234E-02  0.2260E+00  0.2259E+00
     43.044  0.4243E-02  0.4605E-02  0.2268E+00  0.2268E+00
     43.238  0.3440E-02  0.3313E-02  0.2275E+00  0.2275E+00
     43.432  0.1731E-02  0.1436E-02  0.2278E+00  0.2277E+00
     43.627  0.3067E-02  0.2488E-02  0.2284E+00  0.2282E+00
     43.821  0.2637E-02  0.3476E-02  0.2289E+00  0.2289E+00
     44.015  0.2022E-02  0.1758E-02  0.2293E+00  0.2292E+00
     44.209  0.4861E-02  0.4998E-02  0.2302E+00  0.2302E+00
     44.403  0.6216E-02  0.6317E-02  0.2314E+00  0.2314E+00
     44.598  0.3127E-02  0.3638E-02  0.2321E+00  0.2321E+00
     44.792  0.2286E-02  0.1639E-02  0.2325E+00  0.2325E+00
     44.986  0.3355E-02  0.2497E-02  0.2332E+00  0.2329E+00
     45.180  0.2188E-02  0.3231E-02  0.2336E+00  0.2336E+00
     45.374  0.1743E-02  0.2252E-02  0.2339E+00  0.2340E+00
     45.569  0.1323E-02  0.8391E-03  0.2342E+00  0.2342E+00
     45.763  0.3783E-02  0.3681E-02  0.2349E+00  0.2349E+00
     45.957  0.3523E-02  0.3858E-02  0.2356E+00  0.2356E+00
     46.151  0.5057E-03  0.2713E-03  0.2357E+00  0.2357E+00
     46.346  0.6698E-03  0.5678E-03  0.2358E+00  0.2358E+00
     46.540  0.1809E-02  0.2344E-02  0.2362E+00  0.2362E+00
     46.734  0.1574E-02  0.1325E-02  0.2365E+00  0.2365E+00
     46.928  0.5739E-03  0.5381E-03  0.2366E+00  0.2366E+00
     47.122  0.1867E-02  0.1773E-02  0.2369E+00  0.2370E+00
     47.317  0.1913E-02  0.1680E-02  0.2373E+00  0.2373E+00
     47.511  0.1136E-02  0.1505E-02  0.2375E+00  0.2376E+00
     47.705  0.8902E-03  0.7579E-03  0.2377E+00  0.2377E+00
     47.899  0.3202E-03  0.5487E-03  0.2378E+00  0.2378E+00
     48.093  0.1712E-02  0.1808E-02  0.2381E+00  0.2382E+00
     48.288  0.1122E-02  0.7940E-03  0.2383E+00  0.2383E+00
     48.482 -0.4926E-04 -0.4444E-04  0.2383E+00  0.2383E+00
     48.676  0.2387E-03  0.4211E-03  0.2384E+00  0.2384E+00
     48.870  0.8266E-03  0.7034E-03  0.2385E+00  0.2385E+00
     49.064  0.9900E-03  0.9908E-03  0.2387E+00  0.2387E+00
     49.259  0.4708E-03  0.3857E-03  0.2388E+00  0.2388E+00
     49.453 -0.3748E-04 -0.4107E-04  0.2388E+00  0.2388E+00
     49.647 -0.1423E-04 -0.1423E-04  0.2388E+00  0.2388E+00
     49.841 -0.6140E-06  0.1322E-04  0.2388E+00  0.2388E+00
     50.036  0.3298E-03  0.3593E-03  0.2389E+00  0.2389E+00
     50.230  0.3544E-03  0.3733E-03  0.2389E+00  0.2389E+00
     50.424  0.7966E-03  0.8338E-03  0.2391E+00  0.2391E+00
     50.618  0.4690E-03  0.4567E-03  0.2392E+00  0.2392E+00
     50.812  0.7165E-03  0.7711E-03  0.2393E+00  0.2393E+00
     51.007  0.4201E-03  0.2883E-03  0.2394E+00  0.2394E+00
     51.201  0.3400E-03  0.5191E-03  0.2395E+00  0.2395E+00
     51.395  0.8454E-03  0.7268E-03  0.2396E+00  0.2396E+00
     51.589  0.8700E-04  0.8583E-05  0.2396E+00  0.2396E+00
     51.783 -0.3511E-04 -0.2816E-04  0.2396E+00  0.2396E+00
     51.978  0.1962E-04  0.4257E-04  0.2396E+00  0.2396E+00
     52.172  0.3989E-03  0.4257E-03  0.2397E+00  0.2397E+00
     52.366  0.2303E-03  0.1839E-03  0.2398E+00  0.2398E+00
     52.560 -0.2080E-04 -0.2284E-04  0.2398E+00  0.2398E+00
     52.755 -0.2261E-04 -0.2026E-04  0.2398E+00  0.2398E+00
     52.949  0.1931E-03  0.2345E-03  0.2398E+00  0.2398E+00
     53.143  0.4008E-03  0.3750E-03  0.2399E+00  0.2399E+00
     53.337  0.1945E-03  0.2294E-03  0.2399E+00  0.2399E+00
     53.531  0.4250E-03  0.4010E-03  0.2400E+00  0.2400E+00
     53.726  0.5874E-04  0.2839E-04  0.2400E+00  0.2400E+00
     53.920 -0.1402E-04 -0.1095E-04  0.2400E+00  0.2400E+00
     54.114 -0.5426E-06 -0.3099E-06  0.2400E+00  0.2400E+00
     54.308 -0.2182E-08 -0.9693E-09  0.2400E+00  0.2400E+00
     54.502 -0.1175E-11 -0.4109E-12  0.2400E+00  0.2400E+00
     54.697 -0.9014E-16 -0.2483E-16  0.2400E+00  0.2400E+00
     54.891  0.0000E+00  0.0000E+00  0.2400E+00  0.2400E+00
     55.085  0.0000E+00  0.0000E+00  0.2400E+00  0.2400E+00
     55.279  0.0000E+00  0.0000E+00  0.2400E+00  0.2400E+00
     55.474  0.0000E+00  0.0000E+00  0.2400E+00  0.2400E+00
     55.668  0.0000E+00  0.0000E+00  0.2400E+00  0.2400E+00
     55.862  0.0000E+00  0.0000E+00  0.2400E+00  0.2400E+00
     56.056  0.0000E+00  0.0000E+00  0.2400E+00  0.2400E+00
