    1    1   50    2
  0.1090355E+02  0.2489016E-09  0.2489016E-09  0.2489016E-09  0.5000000E-15
  1.000000000000000E-004
  CAR 
 fcc Ni                                  
     10    110     12
 
  0.5000000E-01  0.5000000E-01  0.5000000E-01  0.2000000E-02
    1        0.479587      0.440594   1.000000   1.000000
    2        6.957409      7.680599   1.000000   1.000000
    3        7.005065      7.732440   1.000000   1.000000
    4        7.005065      7.732440   1.000000   1.000000
    5        8.136008      8.758537   1.000000   1.000020
    6        8.136008      8.758537   1.000000   1.000020
    7       32.856547     32.724605   0.000000   0.000000
    8       35.655867     35.641712   0.000000   0.000000
    9       36.775874     36.771555   0.000000   0.000000
   10       36.775874     36.771555   0.000000   0.000000
   11       40.336640     40.400031   0.000000   0.000000
   12       40.336640     40.400031   0.000000   0.000000
 
  0.1500000E+00  0.5000000E-01  0.5000000E-01  0.6000000E-02
    1        0.993688      0.955889   1.000000   1.000000
    2        6.824220      7.531126   1.000000   1.000000
    3        7.106146      7.838079   1.000000   1.000000
    4        7.121427      7.847086   1.000000   1.000000
    5        8.036810      8.653432   1.000000   1.000001
    6        8.164975      8.792128   1.000000   1.000053
    7       30.666945     30.678376   0.000000   0.000000
    8       33.012754     32.999462   0.000000   0.000000
    9       35.665965     35.626392   0.000000   0.000000
   10       37.472668     37.472948   0.000000   0.000000
   11       40.107469     40.070168   0.000000   0.000000
   12       40.550583     40.599888   0.000000   0.000000
 
  0.2500000E+00  0.5000000E-01  0.5000000E-01  0.6000000E-02
    1        2.191332      2.166739   1.000000   1.000000
    2        6.637360      7.296498   1.000000   1.000000
    3        7.214316      7.909262   1.000000   1.000000
    4        7.242869      7.951471   1.000000   1.000000
    5        8.022307      8.665468   1.000000   1.000001
    6        8.281396      8.941965   1.000000   1.002212
    7       25.598565     25.702303   0.000000   0.000000
    8       31.918113     31.913517   0.000000   0.000000
    9       35.076502     35.036188   0.000000   0.000000
   10       36.873285     36.934498   0.000000   0.000000
   11       39.761547     39.722716   0.000000   0.000000
   12       40.075008     40.104160   0.000000   0.000000
 
  0.3500000E+00  0.5000000E-01  0.5000000E-01  0.6000000E-02
    1        3.679238      3.753385   1.000000   1.000000
    2        6.793034      7.303962   1.000000   1.000000
    3        7.133501      7.783121   1.000000   1.000000
    4        7.181047      7.835013   1.000000   1.000000
    5        8.302151      9.009267   1.000000   1.007672
    6        8.613356      9.315038   1.000000   0.861081
    7       20.736692     20.916258   0.000000   0.000000
    8       31.288225     31.270082   0.000000   0.000000
    9       33.954972     33.932159   0.000000   0.000000
   10       36.083483     36.188986   0.000000   0.000000
   11       37.800379     37.823381   0.000000   0.000000
   12       39.595723     39.603364   0.000000   0.000000
 
  0.4500000E+00  0.5000000E-01  0.5000000E-01  0.6000000E-02
    1        4.501806      4.837196   1.000000   1.000000
    2        7.001633      7.619757   1.000000   1.000000
    3        7.062812      7.692758   1.000000   1.000000
    4        7.846487      8.109567   1.000000   1.000000
    5        8.652142      9.395385   1.000001   0.569205
    6        9.150046      9.763832   1.034490  -0.016009
    7       16.702723     17.000569   0.000000   0.000000
    8       31.044571     30.977826   0.000000   0.000000
    9       33.203439     33.222147   0.000000   0.000000
   10       34.534838     34.622707   0.000000   0.000000
   11       37.318475     37.359999   0.000000   0.000000
   12       38.723099     38.748693   0.000000   0.000000
 
 -0.4500000E+00  0.5000000E-01  0.5000000E-01  0.6000000E-02
    1        4.620828      5.037004   1.000000   1.000000
    2        6.953374      7.563779   1.000000   1.000000
    3        7.032132      7.658869   1.000000   1.000000
    4        8.267696      8.611218   1.000000   1.000000
    5        8.815451      9.568998   1.000103   0.013626
    6        9.676885     10.040254  -0.034101  -0.000041
    7       15.181383     15.576488   0.000000   0.000000
    8       31.166146     31.052915   0.000000   0.000000
    9       33.270756     33.349075   0.000000   0.000000
   10       33.372950     33.441848   0.000000   0.000000
   11       37.933221     37.978065   0.000000   0.000000
   12       38.023690     38.048640   0.000000   0.000000
 
 -0.3500000E+00  0.5000000E-01  0.5000000E-01  0.6000000E-02
    1        4.338834      4.590915   1.000000   1.000000
    2        7.027772      7.621972   1.000000   1.000000
    3        7.108723      7.749338   1.000000   1.000000
    4        7.412799      7.767205   1.000000   1.000000
    5        8.705656      9.442527   1.000004   0.371674
    6        8.794481      9.460751   1.000057   0.299597
    7       17.903420     18.153594   0.000000   0.000000
    8       31.641416     31.522976   0.000000   0.000000
    9       32.773105     32.854958   0.000000   0.000000
   10       34.540270     34.636856   0.000000   0.000000
   11       37.874570     37.885491   0.000000   0.000000
   12       39.249748     39.284639   0.000000   0.000000
 
 -0.2500000E+00  0.5000000E-01  0.5000000E-01  0.6000000E-02
    1        3.202444      3.223191   1.000000   1.000000
    2        6.649463      7.231584   1.000000   1.000000
    3        7.173708      7.832234   1.000000   1.000000
    4        7.221794      7.895879   1.000000   1.000000
    5        8.253878      8.939463   1.000000   1.002100
    6        8.423739      9.117986   1.000000   1.029006
    7       22.293209     22.445053   0.000000   0.000000
    8       32.404263     32.304884   0.000000   0.000000
    9       32.984498     33.067642   0.000000   0.000000
   10       36.344183     36.438444   0.000000   0.000000
   11       38.242129     38.227574   0.000000   0.000000
   12       41.170784     41.184920   0.000000   0.000000
 
 -0.1500000E+00  0.5000000E-01  0.5000000E-01  0.6000000E-02
    1        1.729651      1.697319   1.000000   1.000000
    2        6.680542      7.360926   1.000000   1.000000
    3        7.208720      7.923936   1.000000   1.000000
    4        7.217334      7.935421   1.000000   1.000000
    5        8.002311      8.632260   1.000000   1.000000
    6        8.212706      8.854159   1.000000   1.000291
    7       27.314626     27.394235   0.000000   0.000000
    8       33.212958     33.124111   0.000000   0.000000
    9       33.792842     33.863555   0.000000   0.000000
   10       37.525190     37.519013   0.000000   0.000000
   11       38.983758     38.995773   0.000000   0.000000
   12       42.801597     42.815466   0.000000   0.000000
 
 -0.5000000E-01  0.5000000E-01  0.5000000E-01  0.6000000E-02
    1        0.738820      0.700214   1.000000   1.000000
    2        6.872663      7.588093   1.000000   1.000000
    3        7.070440      7.799702   1.000000   1.000000
    4        7.074049      7.803121   1.000000   1.000000
    5        8.053935      8.671294   1.000000   1.000001
    6        8.172297      8.796857   1.000000   1.000061
    7       32.048279     31.988931   0.000000   0.000000
    8       34.342614     34.308833   0.000000   0.000000
    9       35.117774     35.159809   0.000000   0.000000
   10       36.723373     36.693338   0.000000   0.000000
   11       40.421686     40.466027   0.000000   0.000000
   12       41.943643     41.942127   0.000000   0.000000
 
  0.1500000E+00  0.1500000E+00  0.5000000E-01  0.6000000E-02
    1        1.245927      1.208754   1.000000   1.000000
    2        6.703005      7.404319   1.000000   1.000000
    3        7.206745      7.938316   1.000000   1.000000
    4        7.209723      7.942296   1.000000   1.000000
    5        7.907982      8.515728   1.000000   1.000000
    6        8.241468      8.870009   1.000000   1.000433
    7       30.855828     30.867948   0.000000   0.000000
    8       33.045155     33.006393   0.000000   0.000000
    9       33.209842     33.274621   0.000000   0.000000
   10       35.388689     35.348704   0.000000   0.000000
   11       40.898740     41.046212   0.000000   0.000000
   12       42.345365     42.394901   0.000000   0.000000
 
  0.2500000E+00  0.1500000E+00  0.5000000E-01  0.1200000E-01
    1        2.204257      2.175435   1.000000   1.000000
    2        6.479455      7.155238   1.000000   1.000000
    3        7.288523      7.970296   1.000000   1.000000
    4        7.406244      8.141251   1.000000   1.000000
    5        7.850183      8.478858   1.000000   1.000000
    6        8.368910      9.020329   1.000000   1.009153
    7       27.673310     27.752411   0.000000   0.000000
    8       29.887274     29.931424   0.000000   0.000000
    9       33.663037     33.643129   0.000000   0.000000
   10       35.083364     35.065310   0.000000   0.000000
   11       39.032797     39.217566   0.000000   0.000000
   12       42.477063     42.442629   0.000000   0.000000
 
  0.3500000E+00  0.1500000E+00  0.5000000E-01  0.1200000E-01
    1        3.617603      3.645622   1.000000   1.000000
    2        6.375414      6.985777   1.000000   1.000000
    3        7.086621      7.711973   1.000000   1.000000
    4        7.437566      8.118296   1.000000   1.000000
    5        8.250602      8.929037   1.000000   1.001687
    6        8.719142      9.408086   1.000006   0.515717
    7       22.663947     22.805437   0.000000   0.000000
    8       29.080367     29.128779   0.000000   0.000000
    9       32.135207     32.131796   0.000000   0.000000
   10       34.474962     34.544533   0.000000   0.000000
   11       40.692963     40.750328   0.000000   0.000000
   12       41.069296     41.041430   0.000000   0.000000
 
  0.4500000E+00  0.1500000E+00  0.5000000E-01  0.1200000E-01
    1        4.683967      4.951718   1.000000   1.000000
    2        6.724256      7.158895   1.000000   1.000000
    3        6.947276      7.558857   1.000000   1.000000
    4        7.331631      7.974972   1.000000   1.000000
    5        8.689429      9.419353   1.000002   0.468070
    6        9.619811     10.183317  -0.028800  -0.000000
    7       18.221061     18.448708   0.000000   0.000000
    8       28.840854     28.866004   0.000000   0.000000
    9       30.469785     30.524600   0.000000   0.000000
   10       33.616825     33.655529   0.000000   0.000000
   11       39.929643     39.940261   0.000000   0.000000
   12       42.306734     42.295942   0.000000   0.000000
 
 -0.4500000E+00  0.1500000E+00  0.5000000E-01  0.1200000E-01
    1        4.933384      5.371508   1.000000   1.000000
    2        6.713025      7.225731   1.000000   1.000000
    3        7.244202      7.871544   1.000000   1.000000
    4        7.431384      7.915457   1.000000   1.000000
    5        8.786271      9.543163   1.000045   0.056120
    6       11.050047     11.354137  -0.000000  -0.000000
    7       15.306344     15.674056   0.000000   0.000000
    8       28.444671     28.459972   0.000000   0.000000
    9       30.025442     30.106226   0.000000   0.000000
   10       33.463065     33.467190   0.000000   0.000000
   11       39.219810     39.254648   0.000000   0.000000
   12       41.931188     41.921509   0.000000   0.000000
 
 -0.3500000E+00  0.1500000E+00  0.5000000E-01  0.1200000E-01
    1        4.839863      5.193758   1.000000   1.000000
    2        6.788233      7.292632   1.000000   1.000000
    3        7.142797      7.642396   1.000000   1.000000
    4        7.286172      7.907743   1.000000   1.000000
    5        8.596000      9.339304   1.000000   0.785561
    6       10.204525     10.694240  -0.000000  -0.000000
    7       16.982851     17.254731   0.000000   0.000000
    8       27.768057     27.815267   0.000000   0.000000
    9       31.183410     31.225502   0.000000   0.000000
   10       34.204029     34.212648   0.000000   0.000000
   11       38.849910     38.887527   0.000000   0.000000
   12       41.634419     41.625009   0.000000   0.000000
 
 -0.2500000E+00  0.1500000E+00  0.5000000E-01  0.1200000E-01
    1        4.083690      4.164938   1.000000   1.000000
    2        6.503865      7.068014   1.000000   1.000000
    3        6.999712      7.617684   1.000000   1.000000
    4        7.391943      8.044298   1.000000   1.000000
    5        8.181337      8.886897   1.000000   1.000652
    6        9.103120      9.776634   1.025682  -0.013520
    7       21.110472     21.278203   0.000000   0.000000
    8       27.669546     27.731552   0.000000   0.000000
    9       33.014851     33.016962   0.000000   0.000000
   10       35.774191     35.814806   0.000000   0.000000
   11       38.842878     38.852872   0.000000   0.000000
   12       40.928676     40.923717   0.000000   0.000000
 
 -0.1500000E+00  0.1500000E+00  0.5000000E-01  0.1200000E-01
    1        2.651410      2.631642   1.000000   1.000000
    2        6.472872      7.135352   1.000000   1.000000
    3        7.203342      7.863838   1.000000   1.000000
    4        7.434859      8.164402   1.000000   1.000000
    5        7.847921      8.472496   1.000000   1.000000
    6        8.525834      9.202017   1.000000   1.029488
    7       25.965346     26.067490   0.000000   0.000000
    8       28.236957     28.296096   0.000000   0.000000
    9       35.201560     35.170624   0.000000   0.000000
   10       36.657598     36.632777   0.000000   0.000000
   11       39.701982     39.744723   0.000000   0.000000
   12       40.187121     40.245743   0.000000   0.000000
 
 -0.5000000E-01  0.1500000E+00  0.5000000E-01  0.1200000E-01
    1        1.491714      1.456328   1.000000   1.000000
    2        6.686015      7.379232   1.000000   1.000000
    3        7.209356      7.925723   1.000000   1.000000
    4        7.222724      7.957161   1.000000   1.000000
    5        7.931176      8.544085   1.000000   1.000000
    6        8.241774      8.878813   1.000000   1.000537
    7       29.141650     29.194619   0.000000   0.000000
    8       31.423108     31.441319   0.000000   0.000000
    9       34.984610     34.953136   0.000000   0.000000
   10       37.074804     37.026216   0.000000   0.000000
   11       39.810522     39.863553   0.000000   0.000000
   12       41.802378     41.808188   0.000000   0.000000
 
  0.2500000E+00  0.2500000E+00  0.5000000E-01  0.6000000E-02
    1        2.859058      2.842161   1.000000   1.000000
    2        6.207925      6.870222   1.000000   1.000000
    3        7.440761      8.038696   1.000000   1.000000
    4        7.656168      8.401577   1.000000   1.000000
    5        7.817730      8.521156   1.000000   1.000000
    6        8.450143      9.092502   1.000000   1.023228
    7       28.126658     28.199354   0.000000   0.000000
    8       29.588168     29.660071   0.000000   0.000000
    9       30.695746     30.678516   0.000000   0.000000
   10       31.750310     31.776969   0.000000   0.000000
   11       36.130274     36.318570   0.000000   0.000000
   12       46.451863     46.382125   0.000000   0.000000
 
  0.3500000E+00  0.2500000E+00  0.5000000E-01  0.1200000E-01
    1        3.955522      3.995676   1.000000   1.000000
    2        5.982964      6.619984   1.000000   1.000000
    3        7.216796      7.789016   1.000000   1.000000
    4        7.902961      8.628690   1.000000   1.000000
    5        8.285956      8.946540   1.000000   1.002428
    6        8.739161      9.420501   1.000011   0.463228
    7       25.055847     25.154817   0.000000   0.000000
    8       27.065439     27.128765   0.000000   0.000000
    9       28.882952     28.938790   0.000000   0.000000
   10       32.341199     32.384275   0.000000   0.000000
   11       36.270144     36.397646   0.000000   0.000000
   12       45.946037     45.904796   0.000000   0.000000
 
  0.4500000E+00  0.2500000E+00  0.5000000E-01  0.1200000E-01
    1        4.968963      5.187739   1.000000   1.000000
    2        5.978946      6.541214   1.000000   1.000000
    3        6.956163      7.528155   1.000000   1.000000
    4        7.840786      8.511043   1.000000   1.000000
    5        8.746313      9.476039   1.000013   0.243107
    6        9.962199     10.493570  -0.000349  -0.000000
    7       20.410390     20.564814   0.000000   0.000000
    8       26.200989     26.265656   0.000000   0.000000
    9       27.079669     27.163810   0.000000   0.000000
   10       32.453800     32.504261   0.000000   0.000000
   11       39.647099     39.719331   0.000000   0.000000
   12       44.396602     44.391635   0.000000   0.000000
 
 -0.4500000E+00  0.2500000E+00  0.5000000E-01  0.1200000E-01
    1        5.387441      5.844346   1.000000   1.000000
    2        6.165626      6.592358   1.000000   1.000000
    3        6.912358      7.501368   1.000000   1.000000
    4        7.715691      8.356493   1.000000   1.000000
    5        8.802047      9.568381   1.000071   0.014458
    6       12.214970     12.535765  -0.000000  -0.000000
    7       16.510584     16.761689   0.000000   0.000000
    8       24.552166     24.646379   0.000000   0.000000
    9       27.428342     27.500759   0.000000   0.000000
   10       32.593068     32.623854   0.000000   0.000000
   11       42.341178     42.341580   0.000000   0.000000
   12       44.987252     45.050970   0.000000   0.000000
 
 -0.3500000E+00  0.2500000E+00  0.5000000E-01  0.1200000E-01
    1        5.498291      5.954975   1.000000   1.000000
    2        6.315181      6.744184   1.000000   1.000000
    3        6.792933      7.370150   1.000000   1.000000
    4        7.657418      8.279843   1.000000   1.000000
    5        8.559438      9.329482   1.000000   0.817760
    6       12.349825     12.682776  -0.000000  -0.000000
    7       16.523389     16.786397   0.000000   0.000000
    8       23.394356     23.501599   0.000000   0.000000
    9       28.753834     28.823157   0.000000   0.000000
   10       33.311166     33.324908   0.000000   0.000000
   11       41.530763     41.525363   0.000000   0.000000
   12       45.349765     45.317840   0.000000   0.000000
 
 -0.2500000E+00  0.2500000E+00  0.5000000E-01  0.1200000E-01
    1        5.175556      5.371986   1.000000   1.000000
    2        6.344845      6.929892   1.000000   1.000000
    3        6.628320      7.186867   1.000000   1.000000
    4        7.718279      8.320348   1.000000   1.000000
    5        8.124844      8.891792   1.000000   1.000732
    6       10.392672     10.951171  -0.000000  -0.000000
    7       20.409199     20.584561   0.000000   0.000000
    8       23.010198     23.120930   0.000000   0.000000
    9       30.714386     30.769393   0.000000   0.000000
   10       34.821983     34.836357   0.000000   0.000000
   11       40.243413     40.205026   0.000000   0.000000
   12       44.185209     44.179062   0.000000   0.000000
 
 -0.1500000E+00  0.2500000E+00  0.5000000E-01  0.1200000E-01
    1        4.014971      4.053787   1.000000   1.000000
    2        6.330246      6.958091   1.000000   1.000000
    3        6.978505      7.584580   1.000000   1.000000
    4        7.623612      8.271681   1.000000   1.000000
    5        7.894005      8.602668   1.000000   1.000000
    6        9.182204      9.856720   1.034452  -0.003623
    7       23.031393     23.171775   0.000000   0.000000
    8       25.387383     25.475260   0.000000   0.000000
    9       33.058607     33.079955   0.000000   0.000000
   10       36.761976     36.785397   0.000000   0.000000
   11       38.431052     38.395137   0.000000   0.000000
   12       42.007941     42.049610   0.000000   0.000000
 
 -0.5000000E-01  0.2500000E+00  0.5000000E-01  0.1200000E-01
    1        2.843043      2.835286   1.000000   1.000000
    2        6.532396      7.168166   1.000000   1.000000
    3        7.195958      7.857670   1.000000   1.000000
    4        7.313974      8.005552   1.000000   1.000000
    5        8.045058      8.710614   1.000000   1.000004
    6        8.470364      9.150960   1.000000   1.034586
    7       24.048350     24.173140   0.000000   0.000000
    8       30.460696     30.489031   0.000000   0.000000
    9       34.036391     34.005792   0.000000   0.000000
   10       36.830629     36.899741   0.000000   0.000000
   11       38.820646     38.808094   0.000000   0.000000
   12       40.646511     40.661962   0.000000   0.000000
 
  0.3500000E+00  0.3500000E+00  0.5000000E-01  0.6000000E-02
    1        4.448815      4.589322   1.000000   1.000000
    2        5.683887      6.308007   1.000000   1.000000
    3        7.810655      8.273885   1.000000   1.000000
    4        8.237716      8.994045   1.000000   1.005938
    5        8.600648      9.258272   1.000000   0.981301
    6        8.686171      9.357970   1.000002   0.718890
    7       25.358777     25.428644   0.000000   0.000000
    8       25.880467     25.965249   0.000000   0.000000
    9       26.648098     26.697323   0.000000   0.000000
   10       30.240046     30.327693   0.000000   0.000000
   11       33.935982     34.069287   0.000000   0.000000
   12       50.731534     50.691617   0.000000   0.000000
 
  0.4500000E+00  0.3500000E+00  0.5000000E-01  0.1200000E-01
    1        4.893969      5.168089   1.000000   1.000000
    2        5.548330      6.154575   1.000000   1.000000
    3        7.763946      8.319968   1.000000   1.000000
    4        8.455954      9.155639   1.000000   1.035009
    5        8.758802      9.487986   1.000020   0.202104
    6       10.120582     10.551323  -0.000003  -0.000000
    7       22.827099     22.931577   0.000000   0.000000
    8       23.340097     23.451644   0.000000   0.000000
    9       25.075929     25.130887   0.000000   0.000000
   10       31.242385     31.317316   0.000000   0.000000
   11       34.999983     35.111625   0.000000   0.000000
   12       49.033428     49.014259   0.000000   0.000000
 
 -0.4500000E+00  0.3500000E+00  0.5000000E-01  0.1200000E-01
    1        5.273321      5.657144   1.000000   1.000000
    2        5.640806      6.203609   1.000000   1.000000
    3        7.401126      7.984398   1.000000   1.000000
    4        8.291189      8.941283   1.000000   1.002181
    5        8.845937      9.634975   1.000235  -0.033349
    6       12.682618     12.962878  -0.000000  -0.000000
    7       18.931848     19.074214   0.000000   0.000000
    8       21.184666     21.342299   0.000000   0.000000
    9       25.356623     25.412503   0.000000   0.000000
   10       31.753898     31.820454   0.000000   0.000000
   11       38.946124     39.027942   0.000000   0.000000
   12       47.139204     47.119194   0.000000   0.000000
 
 -0.3500000E+00  0.3500000E+00  0.5000000E-01  0.1200000E-01
    1        5.655505      6.143626   1.000000   1.000000
    2        5.865529      6.325834   1.000000   1.000000
    3        6.931947      7.521912   1.000000   1.000000
    4        8.103991      8.715086   1.000000   1.000005
    5        8.641255      9.449068   1.000000   0.345309
    6       15.074173     15.289641   0.000000   0.000000
    7       16.084138     16.300706   0.000000   0.000000
    8       20.063282     20.236235   0.000000   0.000000
    9       26.595587     26.662796   0.000000   0.000000
   10       32.300552     32.344645   0.000000   0.000000
   11       44.012273     44.072322   0.000000   0.000000
   12       45.266752     45.236961   0.000000   0.000000
 
 -0.2500000E+00  0.3500000E+00  0.5000000E-01  0.1200000E-01
    1        5.738155      6.151571   1.000000   1.000000
    2        6.211343      6.669860   1.000000   1.000000
    3        6.545149      7.137126   1.000000   1.000000
    4        7.855997      8.456953   1.000000   1.000000
    5        8.397737      9.189723   1.000000   1.033116
    6       12.416706     12.781988  -0.000000  -0.000000
    7       18.072130     18.274774   0.000000   0.000000
    8       21.223020     21.360604   0.000000   0.000000
    9       28.533362     28.604398   0.000000   0.000000
   10       33.300064     33.320433   0.000000   0.000000
   11       42.546058     42.508105   0.000000   0.000000
   12       46.540212     46.493188   0.000000   0.000000
 
 -0.1500000E+00  0.3500000E+00  0.5000000E-01  0.1200000E-01
    1        5.021825      5.301265   1.000000   1.000000
    2        6.625872      7.070326   1.000000   1.000000
    3        6.719833      7.339365   1.000000   1.000000
    4        7.489446      8.116002   1.000000   1.000000
    5        8.365949      9.109514   1.000000   1.027138
    6       10.337524     10.874070  -0.000000  -0.000000
    7       18.579064     18.792276   0.000000   0.000000
    8       25.287173     25.372705   0.000000   0.000000
    9       30.865567     30.914875   0.000000   0.000000
   10       34.603477     34.611067   0.000000   0.000000
   11       39.596355     39.604035   0.000000   0.000000
   12       42.997750     42.979844   0.000000   0.000000
 
 -0.5000000E-01  0.3500000E+00  0.5000000E-01  0.1200000E-01
    1        4.198703      4.357883   1.000000   1.000000
    2        6.870207      7.316476   1.000000   1.000000
    3        7.024896      7.660374   1.000000   1.000000
    4        7.217794      7.864167   1.000000   1.000000
    5        8.465147      9.177263   1.000000   1.035010
    6        8.950874      9.626750   1.002650  -0.031246
    7       19.380577     19.586301   0.000000   0.000000
    8       30.041700     30.054534   0.000000   0.000000
    9       32.810547     32.797712   0.000000   0.000000
   10       34.891976     34.977561   0.000000   0.000000
   11       38.540556     38.553266   0.000000   0.000000
   12       40.350574     40.359767   0.000000   0.000000
 
  0.4500000E+00  0.4500000E+00  0.5000000E-01  0.6000000E-02
    1        4.795174      5.129642   1.000000   1.000000
    2        5.323742      5.923454   1.000000   1.000000
    3        8.631982      9.356698   1.000000   0.723638
    4        8.717379      9.406013   1.000005   0.524482
    5        8.871825      9.651899   1.000453  -0.035364
    6       10.760872     10.911727  -0.000000  -0.000000
    7       20.512109     20.697895   0.000000   0.000000
    8       23.969700     24.008985   0.000000   0.000000
    9       24.793829     24.811371   0.000000   0.000000
   10       29.694412     29.816910   0.000000   0.000000
   11       33.222899     33.351429   0.000000   0.000000
   12       53.002915     52.985011   0.000000   0.000000
 
 -0.4500000E+00  0.4500000E+00  0.5000000E-01  0.1200000E-01
    1        4.915937      5.283228   1.000000   1.000000
    2        5.332614      5.924964   1.000000   1.000000
    3        8.320394      8.994922   1.000000   1.006029
    4        8.714563      9.359016   1.000005   0.714962
    5        8.922820      9.750215   1.001476  -0.018894
    6       12.553931     12.679406  -0.000000  -0.000000
    7       18.980048     19.214853   0.000000   0.000000
    8       22.150570     22.219479   0.000000   0.000000
    9       24.003171     24.035494   0.000000   0.000000
   10       30.834509     30.926842   0.000000   0.000000
   11       34.597785     34.712527   0.000000   0.000000
   12       51.260331     51.221279   0.000000   0.000000
 
 -0.3500000E+00  0.4500000E+00  0.5000000E-01  0.1200000E-01
    1        5.254156      5.651744   1.000000   1.000000
    2        5.571610      6.139738   1.000000   1.000000
    3        7.563862      8.170904   1.000000   1.000000
    4        8.427051      9.055411   1.000000   1.015135
    5        8.823936      9.642585   1.000131  -0.034608
    6       14.035779     14.228473  -0.000000  -0.000000
    7       18.432559     18.583014   0.000000   0.000000
    8       19.532238     19.724820   0.000000   0.000000
    9       25.030676     25.081629   0.000000   0.000000
   10       31.635081     31.706499   0.000000   0.000000
   11       38.817944     38.902661   0.000000   0.000000
   12       48.120478     48.078873   0.000000   0.000000
 
 -0.2500000E+00  0.4500000E+00  0.5000000E-01  0.1200000E-01
    1        5.577859      6.079348   1.000000   1.000000
    2        5.961597      6.388442   1.000000   1.000000
    3        6.919079      7.507745   1.000000   1.000000
    4        7.935350      8.566554   1.000000   1.000000
    5        8.732816      9.516768   1.000009   0.116570
    6       13.855652     14.097872  -0.000000  -0.000000
    7       16.028868     16.280172   0.000000   0.000000
    8       22.032510     22.164691   0.000000   0.000000
    9       26.872216     26.940883   0.000000   0.000000
   10       32.390459     32.429247   0.000000   0.000000
   11       43.451464     43.460895   0.000000   0.000000
   12       44.964521     45.009870   0.000000   0.000000
 
 -0.1500000E+00  0.4500000E+00  0.5000000E-01  0.1200000E-01
    1        5.207211      5.667061   1.000000   1.000000
    2        6.501526      6.954668   1.000000   1.000000
    3        7.104095      7.647472   1.000000   1.000000
    4        7.433674      8.063103   1.000000   1.000000
    5        8.709357      9.470901   1.000004   0.261623
    6       11.962346     12.247919  -0.000000  -0.000000
    7       15.460403     15.801744   0.000000   0.000000
    8       25.927884     25.999826   0.000000   0.000000
    9       29.210303     29.278534   0.000000   0.000000
   10       33.352806     33.357867   0.000000   0.000000
   11       40.315744     40.335154   0.000000   0.000000
   12       43.773963     43.753012   0.000000   0.000000
 
 -0.5000000E-01  0.4500000E+00  0.5000000E-01  0.1200000E-01
    1        4.697356      5.094665   1.000000   1.000000
    2        6.890893      7.469240   1.000000   1.000000