 running on    4 total cores
 distrk:  each k-point on    4 cores,    1 groups
 distr:  one band on    1 cores,    4 groups
 using from now: INCAR     
 vasp.5.4.4.18Apr17-6-g9f103f2a35 (build Jul 01 2019 03:25:34) complex          
  
 POSCAR found type information on POSCAR  Ni
 POSCAR found :  1 types and       1 ions
 scaLAPACK will be used
 LDA part: xc-table for Pade appr. of Perdew
 found WAVECAR, reading the header
 WAVECAR: different cutoff or change in lattice found
 POSCAR, INCAR and KPOINTS ok, starting setup
 FFT: planning ...
 reading WAVECAR
 the WAVECAR file was read successfully
 initial charge from wavefunction
 entering main loop
       N       E                     dE             d eps       ncg     rms          rms(c)
DAV:   1    -0.547668064502E+01   -0.54767E+01   -0.22070E-03  5640   0.425E-01    0.994E-02
DAV:   2    -0.547659099091E+01    0.89654E-04   -0.23286E-03  5928   0.588E-01    0.689E-02
DAV:   3    -0.547653956309E+01    0.51428E-04   -0.34724E-04  3140   0.228E-01
   1 F= -.54765396E+01 E0= -.54759268E+01  d E =-.547654E+01  mag=     0.6230
 curvature:   0.00 expect dE= 0.000E+00 dE for cont linesearch  0.000E+00
 trial: gam= 0.00000 g(F)=  0.441E-61 g(S)=  0.242E-03 ort = 0.000E+00 (trialstep = 0.100E+01)
 search vector abs. value=  0.242E-03
 bond charge predicted
       N       E                     dE             d eps       ncg     rms          rms(c)
DAV:   1    -0.548314791902E+01   -0.65569E-02   -0.85528E-02  6600   0.403E+00    0.686E-01
DAV:   2    -0.547892021080E+01    0.42277E-02   -0.91453E-02  6700   0.361E+00    0.390E-01
DAV:   3    -0.547672854887E+01    0.21917E-02   -0.14501E-02  6604   0.150E+00    0.107E-01
DAV:   4    -0.547660644626E+01    0.12210E-03   -0.78306E-05  3408   0.596E-02    0.614E-02
DAV:   5    -0.547658660945E+01    0.19837E-04   -0.37804E-05  2676   0.334E-02
   2 F= -.54765866E+01 E0= -.54759893E+01  d E =-.470464E-04  mag=     0.6221
 trial-energy change:   -0.000047  1 .order   -0.000065   -0.000242    0.000111
 step:   0.6848(harm=  0.6848)  dis= 0.00000  next Energy=    -5.476622 (dE=-0.829E-04)
 bond charge predicted
       N       E                     dE             d eps       ncg     rms          rms(c)
DAV:   1    -0.547728565560E+01   -0.67921E-03   -0.86317E-03  6520   0.128E+00    0.216E-01
DAV:   2    -0.547685533792E+01    0.43032E-03   -0.91787E-03  6616   0.113E+00    0.123E-01
DAV:   3    -0.547663707563E+01    0.21826E-03   -0.14503E-03  4596   0.476E-01    0.350E-02
DAV:   4    -0.547662362283E+01    0.13453E-04   -0.82965E-06  2704   0.187E-02
   3 F= -.54766236E+01 E0= -.54760204E+01  d E =-.840597E-04  mag=     0.6223
 curvature:  -0.34 expect dE=-0.440E-05 dE for cont linesearch -0.440E-05
 trial: gam= 0.00000 g(F)=  0.356E-61 g(S)=  0.129E-04 ort =-0.558E-04 (trialstep = 0.937E+00)
 search vector abs. value=  0.129E-04
 reached required accuracy - stopping structural energy minimisation
 writing wavefunctions
