 vasp.5.4.4.18Apr17-6-g9f103f2a35 (build Jul 01 2019 03:25:34) complex          
  
 executed on             LinuxIFC date 2020.07.09  19:21:22
 running on    4 total cores
 distrk:  each k-point on    4 cores,    1 groups
 distr:  one band on NCORES_PER_BAND=   1 cores,    4 groups


--------------------------------------------------------------------------------------------------------


 INCAR:
 POTCAR:    PAW_PBE Ni 02Aug2007                  
 POTCAR:    PAW_PBE Ni 02Aug2007                  
   VRHFIN =Ni:                                                                  
   LEXCH  = PE                                                                  
   EATOM  =  1077.6739 eV,   79.2068 Ry                                         
                                                                                
   TITEL  = PAW_PBE Ni 02Aug2007                                                
   LULTRA =        F    use ultrasoft PP ?                                      
   IUNSCR =        1    unscreen: 0-lin 1-nonlin 2-no                           
   RPACOR =    2.000    partial core radius                                     
   POMASS =   58.690; ZVAL   =   10.000    mass and valenz                      
   RCORE  =    2.300    outmost cutoff radius                                   
   RWIGS  =    2.430; RWIGS  =    1.286    wigner-seitz radius (au A)           
   ENMAX  =  269.532; ENMIN  =  202.149 eV                                      
   RCLOC  =    1.201    cutoff for local pot                                    
   LCOR   =        T    correct aug charges                                     
   LPAW   =        T    paw PP                                                  
   EAUG   =  544.565                                                            
   DEXC   =    0.000                                                            
   RMAX   =    2.357    core radius for proj-oper                               
   RAUG   =    1.300    factor for augmentation sphere                          
   RDEP   =    2.390    radius for radial grids                                 
   RDEPT  =    1.838    core radius for aug-charge                              
                                                                                
   Atomic configuration                                                         
    9 entries                                                                   
     n  l   j            E        occ.                                          
     1  0  0.50     -8206.4253   2.0000                                         
     2  0  0.50      -976.1748   2.0000                                         
     2  1  1.50      -839.0571   6.0000                                         
     3  0  0.50      -105.9991   2.0000                                         
     3  1  1.50       -66.4603   6.0000                                         
     3  2  2.50        -4.6458   9.0000                                         
     4  0  0.50        -4.4926   1.0000                                         
     4  1  1.50        -4.0817   0.0000                                         
     4  3  2.50        -1.3606   0.0000                                         
   Description                                                                  
     l       E           TYP  RCUT    TYP  RCUT                                 
     2     -4.6457903     23  2.300                                             
     2     -6.0063729     23  2.300                                             
     0     -4.4925590     23  2.300                                             
     0      5.0102601     23  2.300                                             
     1     -2.7211652     23  2.300                                             
     1     16.5183231     23  2.300                                             
  local pseudopotential read in
  partial core-charges read in
  partial kinetic energy density read in
  atomic valenz-charges read in
  non local Contribution for L=           2  read in
    real space projection operators read in
  non local Contribution for L=           2  read in
    real space projection operators read in
  non local Contribution for L=           0  read in
    real space projection operators read in
  non local Contribution for L=           0  read in
    real space projection operators read in
  non local Contribution for L=           1  read in
    real space projection operators read in
  non local Contribution for L=           1  read in
    real space projection operators read in
    PAW grid and wavefunctions read in
 
   number of l-projection  operators is LMAX  =           6
   number of lm-projection operators is LMMAX =          18
 
  PAW_PBE Ni 02Aug2007                  :
 energy of atom  1       EATOM=-1077.6739
 kinetic energy error for atom=    0.0269 (will be added to EATOM!!)
 
 
 POSCAR: Ni bulk FCC                             
  positions in direct lattice
  No initial velocities read in
 exchange correlation table for  LEXCH =        8
   RHO(1)=    0.500       N(1)  =     2000
   RHO(2)=  100.500       N(2)  =     4000
 


--------------------------------------------------------------------------------------------------------


 ion  position               nearest neighbor table
   1  0.000  0.000  0.000-
 
  LATTYP: Found a face centered cubic cell.
 ALAT       =     3.5200000000
  
  Lattice vectors:
  
 A1 = (   0.0000000000,   1.7600000000,   1.7600000000)
 A2 = (   1.7600000000,   0.0000000000,   1.7600000000)
 A3 = (   1.7600000000,   1.7600000000,   0.0000000000)


Analysis of symmetry for initial positions (statically):
=====================================================================
 Subroutine PRICEL returns:
 Original cell was already a primitive cell.
 

 Routine SETGRP: Setting up the symmetry group for a 
 face centered cubic supercell.


 Subroutine GETGRP returns: Found 48 space group operations
 (whereof 48 operations were pure point group operations)
 out of a pool of 48 trial point group operations.


The static configuration has the point symmetry O_h .


Analysis of symmetry for dynamics (positions and initial velocities):
=====================================================================
 Subroutine PRICEL returns:
 Original cell was already a primitive cell.
 

 Routine SETGRP: Setting up the symmetry group for a 
 face centered cubic supercell.


 Subroutine GETGRP returns: Found 48 space group operations
 (whereof 48 operations were pure point group operations)
 out of a pool of 48 trial point group operations.


The dynamic configuration has the point symmetry O_h .


Analysis of structural, dynamic, and magnetic symmetry:
=====================================================================
 Subroutine PRICEL returns:
 Original cell was already a primitive cell.
 

 Routine SETGRP: Setting up the symmetry group for a 
 face centered cubic supercell.


 Subroutine GETGRP returns: Found 48 space group operations
 (whereof 48 operations were pure point group operations)
 out of a pool of 48 trial point group operations.


The magnetic configuration has the point symmetry O_h .


 Subroutine INISYM returns: Found 48 space group operations
 (whereof 48 operations are pure point group operations),
 and found     1 'primitive' translations

 
 
 KPOINTS: 10x10x10                                

Automatic generation of k-mesh.
Space group operators:
 irot       det(A)        alpha          n_x          n_y          n_z        tau_x        tau_y        tau_z
    1     1.000000     0.000000     1.000000     0.000000     0.000000     0.000000     0.000000     0.000000
    2    -1.000000     0.000000     1.000000     0.000000     0.000000     0.000000     0.000000     0.000000
    3     1.000000   120.000000    -0.577350    -0.577350    -0.577350     0.000000     0.000000     0.000000
    4    -1.000000   120.000000    -0.577350    -0.577350    -0.577350     0.000000     0.000000     0.000000
    5     1.000000   120.000000     0.577350     0.577350     0.577350     0.000000     0.000000     0.000000
    6    -1.000000   120.000000     0.577350     0.577350     0.577350     0.000000     0.000000     0.000000
    7     1.000000    90.000000     0.000000     0.000000    -1.000000     0.000000     0.000000     0.000000
    8    -1.000000    90.000000     0.000000     0.000000    -1.000000     0.000000     0.000000     0.000000
    9     1.000000   180.000000     0.000000     0.707107     0.707107     0.000000     0.000000     0.000000
   10    -1.000000   180.000000     0.000000     0.707107     0.707107     0.000000     0.000000     0.000000
   11     1.000000    90.000000     0.000000     1.000000     0.000000     0.000000     0.000000     0.000000
   12    -1.000000    90.000000     0.000000     1.000000     0.000000     0.000000     0.000000     0.000000
   13     1.000000   180.000000     0.000000     0.000000     1.000000     0.000000     0.000000     0.000000
   14    -1.000000   180.000000     0.000000     0.000000     1.000000     0.000000     0.000000     0.000000
   15     1.000000   120.000000    -0.577350     0.577350     0.577350     0.000000     0.000000     0.000000
   16    -1.000000   120.000000    -0.577350     0.577350     0.577350     0.000000     0.000000     0.000000
   17     1.000000   120.000000    -0.577350     0.577350    -0.577350     0.000000     0.000000     0.000000
   18    -1.000000   120.000000    -0.577350     0.577350    -0.577350     0.000000     0.000000     0.000000
   19     1.000000    90.000000     0.000000     0.000000     1.000000     0.000000     0.000000     0.000000
   20    -1.000000    90.000000     0.000000     0.000000     1.000000     0.000000     0.000000     0.000000
   21     1.000000    90.000000    -1.000000     0.000000     0.000000     0.000000     0.000000     0.000000
   22    -1.000000    90.000000    -1.000000     0.000000     0.000000     0.000000     0.000000     0.000000
   23     1.000000   180.000000     0.707107     0.000000     0.707107     0.000000     0.000000     0.000000
   24    -1.000000   180.000000     0.707107     0.000000     0.707107     0.000000     0.000000     0.000000
   25     1.000000   120.000000     0.577350    -0.577350     0.577350     0.000000     0.000000     0.000000
   26    -1.000000   120.000000     0.577350    -0.577350     0.577350     0.000000     0.000000     0.000000
   27     1.000000   120.000000    -0.577350    -0.577350     0.577350     0.000000     0.000000     0.000000
   28    -1.000000   120.000000    -0.577350    -0.577350     0.577350     0.000000     0.000000     0.000000
   29     1.000000   180.000000     1.000000     0.000000     0.000000     0.000000     0.000000     0.000000
   30    -1.000000   180.000000     1.000000     0.000000     0.000000     0.000000     0.000000     0.000000
   31     1.000000    90.000000     0.000000    -1.000000     0.000000     0.000000     0.000000     0.000000
   32    -1.000000    90.000000     0.000000    -1.000000     0.000000     0.000000     0.000000     0.000000
   33     1.000000   180.000000     0.707107     0.707107     0.000000     0.000000     0.000000     0.000000
   34    -1.000000   180.000000     0.707107     0.707107     0.000000     0.000000     0.000000     0.000000
   35     1.000000    90.000000     1.000000     0.000000     0.000000     0.000000     0.000000     0.000000
   36    -1.000000    90.000000     1.000000     0.000000     0.000000     0.000000     0.000000     0.000000
   37     1.000000   120.000000     0.577350    -0.577350    -0.577350     0.000000     0.000000     0.000000
   38    -1.000000   120.000000     0.577350    -0.577350    -0.577350     0.000000     0.000000     0.000000
   39     1.000000   180.000000     0.000000     1.000000     0.000000     0.000000     0.000000     0.000000
   40    -1.000000   180.000000     0.000000     1.000000     0.000000     0.000000     0.000000     0.000000
   41     1.000000   120.000000     0.577350     0.577350    -0.577350     0.000000     0.000000     0.000000
   42    -1.000000   120.000000     0.577350     0.577350    -0.577350     0.000000     0.000000     0.000000
   43     1.000000   180.000000     0.000000    -0.707107     0.707107     0.000000     0.000000     0.000000
   44    -1.000000   180.000000     0.000000    -0.707107     0.707107     0.000000     0.000000     0.000000
   45     1.000000   180.000000     0.707107    -0.707107     0.000000     0.000000     0.000000     0.000000
   46    -1.000000   180.000000     0.707107    -0.707107     0.000000     0.000000     0.000000     0.000000
   47     1.000000   180.000000     0.707107     0.000000    -0.707107     0.000000     0.000000     0.000000
   48    -1.000000   180.000000     0.707107     0.000000    -0.707107     0.000000     0.000000     0.000000
 
 Subroutine IBZKPT returns following result:
 ===========================================
 
 Found    110 irreducible k-points:
 
 Following reciprocal coordinates:
            Coordinates               Weight
  0.050000  0.050000  0.050000     96.000000
  0.150000  0.050000  0.050000    288.000000
  0.250000  0.050000  0.050000    288.000000
  0.350000  0.050000  0.050000    288.000000
  0.450000  0.050000  0.050000    288.000000
 -0.450000  0.050000  0.050000    288.000000
 -0.350000  0.050000  0.050000    288.000000
 -0.250000  0.050000  0.050000    288.000000
 -0.150000  0.050000  0.050000    288.000000
 -0.050000  0.050000  0.050000    288.000000
  0.150000  0.150000  0.050000    288.000000
  0.250000  0.150000  0.050000    576.000000
  0.350000  0.150000  0.050000    576.000000
  0.450000  0.150000  0.050000    576.000000
 -0.450000  0.150000  0.050000    576.000000
 -0.350000  0.150000  0.050000    576.000000
 -0.250000  0.150000  0.050000    576.000000
 -0.150000  0.150000  0.050000    576.000000
 -0.050000  0.150000  0.050000    576.000000
  0.250000  0.250000  0.050000    288.000000
  0.350000  0.250000  0.050000    576.000000
  0.450000  0.250000  0.050000    576.000000
 -0.450000  0.250000  0.050000    576.000000
 -0.350000  0.250000  0.050000    576.000000
 -0.250000  0.250000  0.050000    576.000000
 -0.150000  0.250000  0.050000    576.000000
 -0.050000  0.250000  0.050000    576.000000
  0.350000  0.350000  0.050000    288.000000
  0.450000  0.350000  0.050000    576.000000
 -0.450000  0.350000  0.050000    576.000000
 -0.350000  0.350000  0.050000    576.000000
 -0.250000  0.350000  0.050000    576.000000
 -0.150000  0.350000  0.050000    576.000000
 -0.050000  0.350000  0.050000    576.000000
  0.450000  0.450000  0.050000    288.000000
 -0.450000  0.450000  0.050000    576.000000
 -0.350000  0.450000  0.050000    576.000000
 -0.250000  0.450000  0.050000    576.000000
 -0.150000  0.450000  0.050000    576.000000
 -0.050000  0.450000  0.050000    576.000000
 -0.450000 -0.450000  0.050000    288.000000
 -0.350000 -0.450000  0.050000    576.000000
 -0.250000 -0.450000  0.050000    576.000000
 -0.150000 -0.450000  0.050000    576.000000
 -0.350000 -0.350000  0.050000    288.000000
 -0.250000 -0.350000  0.050000    576.000000
 -0.150000 -0.350000  0.050000    576.000000
 -0.250000 -0.250000  0.050000    288.000000
 -0.150000 -0.250000  0.050000    576.000000
 -0.150000 -0.150000  0.050000    288.000000
  0.150000  0.150000  0.150000     96.000000
  0.250000  0.150000  0.150000    288.000000
  0.350000  0.150000  0.150000    288.000000
  0.450000  0.150000  0.150000    288.000000
 -0.450000  0.150000  0.150000    288.000000
 -0.350000  0.150000  0.150000    288.000000
 -0.250000  0.150000  0.150000    288.000000
 -0.150000  0.150000  0.150000    288.000000
  0.250000  0.250000  0.150000    288.000000
  0.350000  0.250000  0.150000    576.000000
  0.450000  0.250000  0.150000    576.000000
 -0.450000  0.250000  0.150000    576.000000
 -0.350000  0.250000  0.150000    576.000000
 -0.250000  0.250000  0.150000    576.000000
 -0.150000  0.250000  0.150000    576.000000
  0.350000  0.350000  0.150000    288.000000
  0.450000  0.350000  0.150000    576.000000
 -0.450000  0.350000  0.150000    576.000000
 -0.350000  0.350000  0.150000    576.000000
 -0.250000  0.350000  0.150000    576.000000
 -0.150000  0.350000  0.150000    576.000000
  0.450000  0.450000  0.150000    288.000000
 -0.450000  0.450000  0.150000    576.000000
 -0.350000  0.450000  0.150000    576.000000
 -0.250000  0.450000  0.150000    576.000000
 -0.150000  0.450000  0.150000    576.000000
 -0.450000 -0.450000  0.150000    288.000000
 -0.350000 -0.450000  0.150000    576.000000
 -0.250000 -0.450000  0.150000    576.000000
 -0.350000 -0.350000  0.150000    288.000000
 -0.250000 -0.350000  0.150000    576.000000
 -0.250000 -0.250000  0.150000    288.000000
  0.250000  0.250000  0.250000     96.000000
  0.350000  0.250000  0.250000    288.000000
  0.450000  0.250000  0.250000    288.000000
 -0.450000  0.250000  0.250000    288.000000
 -0.350000  0.250000  0.250000    288.000000
 -0.250000  0.250000  0.250000    288.000000
  0.350000  0.350000  0.250000    288.000000
  0.450000  0.350000  0.250000    576.000000
 -0.450000  0.350000  0.250000    576.000000
 -0.350000  0.350000  0.250000    576.000000
 -0.250000  0.350000  0.250000    576.000000
  0.450000  0.450000  0.250000    288.000000
 -0.450000  0.450000  0.250000    576.000000
 -0.350000  0.450000  0.250000    576.000000
 -0.250000  0.450000  0.250000    576.000000
 -0.450000 -0.450000  0.250000    288.000000
 -0.350000 -0.450000  0.250000    576.000000
 -0.350000 -0.350000  0.250000    288.000000
  0.350000  0.350000  0.350000     96.000000
  0.450000  0.350000  0.350000    288.000000
 -0.450000  0.350000  0.350000    288.000000
 -0.350000  0.350000  0.350000    288.000000
  0.450000  0.450000  0.350000    288.000000
 -0.450000  0.450000  0.350000    576.000000
 -0.350000  0.450000  0.350000    576.000000
 -0.450000 -0.450000  0.350000    288.000000
  0.450000  0.450000  0.450000     96.000000
 -0.450000  0.450000  0.450000    288.000000
 
 Following cartesian coordinates:
            Coordinates               Weight
  0.050000  0.050000  0.050000     96.000000
 -0.050000  0.150000  0.150000    288.000000
 -0.150000  0.250000  0.250000    288.000000
 -0.250000  0.350000  0.350000    288.000000
 -0.350000  0.450000  0.450000    288.000000
  0.550000 -0.450000 -0.450000    288.000000
  0.450000 -0.350000 -0.350000    288.000000
  0.350000 -0.250000 -0.250000    288.000000
  0.250000 -0.150000 -0.150000    288.000000
  0.150000 -0.050000 -0.050000    288.000000
  0.050000  0.050000  0.250000    288.000000
 -0.050000  0.150000  0.350000    576.000000
 -0.150000  0.250000  0.450000    576.000000
 -0.250000  0.350000  0.550000    576.000000
  0.650000 -0.550000 -0.350000    576.000000
  0.550000 -0.450000 -0.250000    576.000000
  0.450000 -0.350000 -0.150000    576.000000
  0.350000 -0.250000 -0.050000    576.000000
  0.250000 -0.150000  0.050000    576.000000
  0.050000  0.050000  0.450000    288.000000
 -0.050000  0.150000  0.550000    576.000000
 -0.150000  0.250000  0.650000    576.000000
  0.750000 -0.650000 -0.250000    576.000000
  0.650000 -0.550000 -0.150000    576.000000
  0.550000 -0.450000 -0.050000    576.000000
  0.450000 -0.350000  0.050000    576.000000
  0.350000 -0.250000  0.150000    576.000000
  0.050000  0.050000  0.650000    288.000000
 -0.050000  0.150000  0.750000    576.000000
  0.850000 -0.750000 -0.150000    576.000000
  0.750000 -0.650000 -0.050000    576.000000
  0.650000 -0.550000  0.050000    576.000000
  0.550000 -0.450000  0.150000    576.000000
  0.450000 -0.350000  0.250000    576.000000
  0.050000  0.050000  0.850000    288.000000
  0.950000 -0.850000 -0.050000    576.000000
  0.850000 -0.750000  0.050000    576.000000
  0.750000 -0.650000  0.150000    576.000000
  0.650000 -0.550000  0.250000    576.000000
  0.550000 -0.450000  0.350000    576.000000
  0.050000  0.050000 -0.950000    288.000000
 -0.050000  0.150000 -0.850000    576.000000
 -0.150000  0.250000 -0.750000    576.000000
 -0.250000  0.350000 -0.650000    576.000000
  0.050000  0.050000 -0.750000    288.000000
 -0.050000  0.150000 -0.650000    576.000000
 -0.150000  0.250000 -0.550000    576.000000
  0.050000  0.050000 -0.550000    288.000000
 -0.050000  0.150000 -0.450000    576.000000
  0.050000  0.050000 -0.350000    288.000000
  0.150000  0.150000  0.150000     96.000000
  0.050000  0.250000  0.250000    288.000000
 -0.050000  0.350000  0.350000    288.000000
 -0.150000  0.450000  0.450000    288.000000
  0.750000 -0.450000 -0.450000    288.000000
  0.650000 -0.350000 -0.350000    288.000000
  0.550000 -0.250000 -0.250000    288.000000
  0.450000 -0.150000 -0.150000    288.000000
  0.150000  0.150000  0.350000    288.000000
  0.050000  0.250000  0.450000    576.000000
 -0.050000  0.350000  0.550000    576.000000
  0.850000 -0.550000 -0.350000    576.000000
  0.750000 -0.450000 -0.250000    576.000000
  0.650000 -0.350000 -0.150000    576.000000
  0.550000 -0.250000 -0.050000    576.000000
  0.150000  0.150000  0.550000    288.000000
  0.050000  0.250000  0.650000    576.000000
  0.950000 -0.650000 -0.250000    576.000000
  0.850000 -0.550000 -0.150000    576.000000
  0.750000 -0.450000 -0.050000    576.000000
  0.650000 -0.350000  0.050000    576.000000
  0.150000  0.150000  0.750000    288.000000
  1.050000 -0.750000 -0.150000    576.000000
  0.950000 -0.650000 -0.050000    576.000000
  0.850000 -0.550000  0.050000    576.000000
  0.750000 -0.450000  0.150000    576.000000
  0.150000  0.150000 -1.050000    288.000000
  0.050000  0.250000 -0.950000    576.000000
 -0.050000  0.350000 -0.850000    576.000000
  0.150000  0.150000 -0.850000    288.000000
  0.050000  0.250000 -0.750000    576.000000
  0.150000  0.150000 -0.650000    288.000000
  0.250000  0.250000  0.250000     96.000000
  0.150000  0.350000  0.350000    288.000000
  0.050000  0.450000  0.450000    288.000000
  0.950000 -0.450000 -0.450000    288.000000
  0.850000 -0.350000 -0.350000    288.000000
  0.750000 -0.250000 -0.250000    288.000000
  0.250000  0.250000  0.450000    288.000000
  0.150000  0.350000  0.550000    576.000000
  1.050000 -0.550000 -0.350000    576.000000
  0.950000 -0.450000 -0.250000    576.000000
  0.850000 -0.350000 -0.150000    576.000000
  0.250000  0.250000  0.650000    288.000000
  1.150000 -0.650000 -0.250000    576.000000
  1.050000 -0.550000 -0.150000    576.000000
  0.950000 -0.450000 -0.050000    576.000000
  0.250000  0.250000 -1.150000    288.000000
  0.150000  0.350000 -1.050000    576.000000
  0.250000  0.250000 -0.950000    288.000000
  0.350000  0.350000  0.350000     96.000000
  0.250000  0.450000  0.450000    288.000000
  1.150000 -0.450000 -0.450000    288.000000
  1.050000 -0.350000 -0.350000    288.000000
  0.350000  0.350000  0.550000    288.000000
  1.250000 -0.550000 -0.350000    576.000000
  1.150000 -0.450000 -0.250000    576.000000
  0.350000  0.350000 -1.250000    288.000000
  0.450000  0.450000  0.450000     96.000000
  1.350000 -0.450000 -0.450000    288.000000
 


--------------------------------------------------------------------------------------------------------




 Dimension of arrays:
   k-points           NKPTS =    110   k-points in BZ     NKDIM =    110   number of bands    NBANDS=     12
   number of dos      NEDOS =    301   number of ions     NIONS =      1
   non local maximal  LDIM  =      6   non local SUM 2l+1 LMDIM =     18
   total plane-waves  NPLWV =   4096
   max r-space proj   IRMAX =      1   max aug-charges    IRDMAX=   8356
   dimension x,y,z NGX =    16 NGY =   16 NGZ =   16
   dimension x,y,z NGXF=    28 NGYF=   28 NGZF=   28
   support grid    NGXF=    28 NGYF=   28 NGZF=   28
   ions per type =               1
   NGX,Y,Z   is equivalent  to a cutoff of  10.69, 10.69, 10.69 a.u.
   NGXF,Y,Z  is equivalent  to a cutoff of  18.70, 18.70, 18.70 a.u.

 SYSTEM =  fcc Ni                                  
 POSCAR =  Ni bulk FCC                             

 Startparameter for this run:
   NWRITE =      2    write-flag & timer
   PREC   = high      normal or accurate (medium, high low for compatibility)
   ISTART =      1    job   : 0-new  1-cont  2-samecut
   ICHARG =      0    charge: 1-file 2-atom 10-const
   ISPIN  =      2    spin polarized calculation?
   LNONCOLLINEAR =      F non collinear calculations
   LSORBIT =      F    spin-orbit coupling
   INIWAV =      1    electr: 0-lowe 1-rand  2-diag
   LASPH  =      F    aspherical Exc in radial PAW
   METAGGA=      F    non-selfconsistent MetaGGA calc.

 Electronic Relaxation 1
   ENCUT  =  336.9 eV  24.76 Ry    4.98 a.u.   3.73  3.73  3.73*2*pi/ulx,y,z
   ENINI  =  336.9     initial cutoff
   ENAUG  =  544.6 eV  augmentation charge cutoff
   NELM   =     60;   NELMIN=  2; NELMDL=  0     # of ELM steps 
   EDIFF  = 0.1E-03   stopping-criterion for ELM
   LREAL  =      F    real-space projection
   NLSPLINE    = F    spline interpolate recip. space projectors
   LCOMPAT=      F    compatible to vasp.4.4
   GGA_COMPAT  = T    GGA compatible to vasp.4.4-vasp.4.6
   LMAXPAW     = -100 max onsite density
   LMAXMIX     =    2 max onsite mixed and CHGCAR
   VOSKOWN=      0    Vosko Wilk Nusair interpolation
   ROPT   =    0.00000
 Ionic relaxation
   EDIFFG = 0.1E-02   stopping-criterion for IOM
   NSW    =     50    number of steps for IOM
   NBLOCK =      1;   KBLOCK =     50    inner block; outer block 
   IBRION =      2    ionic relax: 0-MD 1-quasi-New 2-CG
   NFREE  =      1    steps in history (QN), initial steepest desc. (CG)
   ISIF   =      3    stress and relaxation
   IWAVPR =     11    prediction:  0-non 1-charg 2-wave 3-comb
   ISYM   =      2    0-nonsym 1-usesym 2-fastsym
   LCORR  =      T    Harris-Foulkes like correction to forces

   POTIM  = 0.5000    time-step for ionic-motion
   TEIN   =    0.0    initial temperature
   TEBEG  =    0.0;   TEEND  =   0.0 temperature during run
   SMASS  =  -3.00    Nose mass-parameter (am)
   estimated Nose-frequenzy (Omega)   =  0.10E-29 period in steps =****** mass=  -0.142E-27a.u.
   SCALEE = 1.0000    scale energy and forces
   NPACO  =    256;   APACO  = 16.0  distance and # of slots for P.C.
   PSTRESS=    0.0 pullay stress

  Mass of Ions in am
   POMASS =  58.69
  Ionic Valenz
   ZVAL   =  10.00
  Atomic Wigner-Seitz radii
   RWIGS  =  -1.00
  virtual crystal weights 
   VCA    =   1.00
   NELECT =      10.0000    total number of electrons
   NUPDOWN=      -1.0000    fix difference up-down

 DOS related values:
   EMIN   =  10.00;   EMAX   =-10.00  energy-range for DOS
   EFERMI =   0.00
   ISMEAR =     1;   SIGMA  =   0.20  broadening in eV -4-tet -1-fermi 0-gaus

 Electronic relaxation 2 (details)
   IALGO  =     38    algorithm
   LDIAG  =      T    sub-space diagonalisation (order eigenvalues)
   LSUBROT=      F    optimize rotation matrix (better conditioning)
   TURBO    =      0    0=normal 1=particle mesh
   IRESTART =      0    0=no restart 2=restart with 2 vectors
   NREBOOT  =      0    no. of reboots
   NMIN     =      0    reboot dimension
   EREF     =   0.00    reference energy to select bands
   IMIX   =      4    mixing-type and parameters
     AMIX     =   0.40;   BMIX     =  1.00
     AMIX_MAG =   1.60;   BMIX_MAG =  1.00
     AMIN     =   0.10
     WC   =   100.;   INIMIX=   1;  MIXPRE=   1;  MAXMIX= -45

 Intra band minimization:
   WEIMIN = 0.0010     energy-eigenvalue tresh-hold
   EBREAK =  0.21E-05  absolut break condition
   DEPER  =   0.30     relativ break condition  

   TIME   =   0.40     timestep for ELM

  volume/ion in A,a.u.               =      10.90        73.58
  Fermi-wavevector in a.u.,A,eV,Ry     =   1.590568  3.005737 34.421456  2.529906
  Thomas-Fermi vector in A             =   2.689243
 
 Write flags
   LWAVE        =      T    write WAVECAR
   LDOWNSAMPLE  =      F    k-point downsampling of WAVECAR
   LCHARG       =      T    write CHGCAR
   LVTOT        =      F    write LOCPOT, total local potential
   LVHAR        =      F    write LOCPOT, Hartree potential only
   LELF         =      F    write electronic localiz. function (ELF)
   LORBIT       =      0    0 simple, 1 ext, 2 COOP (PROOUT), +10 PAW based schemes


 Dipole corrections
   LMONO  =      F    monopole corrections only (constant potential shift)
   LDIPOL =      F    correct potential (dipole corrections)
   IDIPOL =      0    1-x, 2-y, 3-z, 4-all directions 
   EPSILON=  1.0000000 bulk dielectric constant

 Exchange correlation treatment:
   GGA     =    --    GGA type
   LEXCH   =     8    internal setting for exchange type
   VOSKOWN=      0    Vosko Wilk Nusair interpolation
   LHFCALC =     F    Hartree Fock is set to
   LHFONE  =     F    Hartree Fock one center treatment
   AEXX    =    0.0000 exact exchange contribution

 Linear response parameters
   LEPSILON=     F    determine dielectric tensor
   LRPA    =     F    only Hartree local field effects (RPA)
   LNABLA  =     F    use nabla operator in PAW spheres
   LVEL    =     F    velocity operator in full k-point grid
   LINTERFAST=   F  fast interpolation
   KINTER  =     0    interpolate to denser k-point grid
   CSHIFT  =0.1000    complex shift for real part using Kramers Kronig
   OMEGAMAX=  -1.0    maximum frequency
   DEG_THRESHOLD= 0.2000000E-02 threshold for treating states as degnerate
   RTIME   =   -0.100 relaxation time in fs
  (WPLASMAI=    0.000 imaginary part of plasma frequency in eV, 0.658/RTIME)
   DFIELD  = 0.0000000 0.0000000 0.0000000 field for delta impulse in time
 
 Orbital magnetization related:
   ORBITALMAG=     F  switch on orbital magnetization
   LCHIMAG   =     F  perturbation theory with respect to B field
   DQ        =  0.001000  dq finite difference perturbation B field
   LLRAUG    =     F  two centre corrections for induced B field



--------------------------------------------------------------------------------------------------------


 conjugate gradient relaxation of ions
 charge density and potential will be updated during run
 spin polarized calculation
 Variant of blocked Davidson
 Davidson routine will perform the subspace rotation
 perform sub-space diagonalisation
    after iterative eigenvector-optimisation
 modified Broyden-mixing scheme, WC =      100.0
 initial mixing is a Kerker type mixing with AMIX =  0.4000 and BMIX =      1.0000
 Hartree-type preconditioning will be used
 using additional bands            7
 reciprocal scheme for non local part
 use partial core corrections
 calculate Harris-corrections to forces 
   (improved forces if not selfconsistent)
 use gradient corrections 
 use of overlap-Matrix (Vanderbilt PP)
 Methfessel and Paxton  Order N= 1 SIGMA  =   0.20


--------------------------------------------------------------------------------------------------------


  energy-cutoff  :      336.91
  volume of cell :       10.90
      direct lattice vectors                 reciprocal lattice vectors
     0.000000000  1.760000000  1.760000000    -0.284090909  0.284090909  0.284090909
     1.760000000  0.000000000  1.760000000     0.284090909 -0.284090909  0.284090909
     1.760000000  1.760000000  0.000000000     0.284090909  0.284090909 -0.284090909

  length of vectors
     2.489015870  2.489015870  2.489015870     0.492059889  0.492059889  0.492059889


 
 old parameters found on file WAVECAR:
  energy-cutoff  :      336.91
  volume of cell :       19.88
      direct lattice vectors                 reciprocal lattice vectors
     0.000000000  2.150000000  2.150000000    -0.232558140  0.232558140  0.232558140
     2.150000000  0.000000000  2.150000000     0.232558140 -0.232558140  0.232558140
     2.150000000  2.150000000  0.000000000     0.232558140  0.232558140 -0.232558140

  length of vectors

 
 k-points in units of 2pi/SCALE and weight: 10x10x10                                
   0.05000000  0.05000000  0.05000000       0.002
  -0.05000000  0.15000000  0.15000000       0.006
  -0.15000000  0.25000000  0.25000000       0.006
  -0.25000000  0.35000000  0.35000000       0.006
  -0.35000000  0.45000000  0.45000000       0.006
   0.55000000 -0.45000000 -0.45000000       0.006
   0.45000000 -0.35000000 -0.35000000       0.006
   0.35000000 -0.25000000 -0.25000000       0.006
   0.25000000 -0.15000000 -0.15000000       0.006
   0.15000000 -0.05000000 -0.05000000       0.006
   0.05000000  0.05000000  0.25000000       0.006
  -0.05000000  0.15000000  0.35000000       0.012
  -0.15000000  0.25000000  0.45000000       0.012
  -0.25000000  0.35000000  0.55000000       0.012
   0.65000000 -0.55000000 -0.35000000       0.012
   0.55000000 -0.45000000 -0.25000000       0.012
   0.45000000 -0.35000000 -0.15000000       0.012
   0.35000000 -0.25000000 -0.05000000       0.012
   0.25000000 -0.15000000  0.05000000       0.012
   0.05000000  0.05000000  0.45000000       0.006
  -0.05000000  0.15000000  0.55000000       0.012
  -0.15000000  0.25000000  0.65000000       0.012
   0.75000000 -0.65000000 -0.25000000       0.012
   0.65000000 -0.55000000 -0.15000000       0.012
   0.55000000 -0.45000000 -0.05000000       0.012
   0.45000000 -0.35000000  0.05000000       0.012
   0.35000000 -0.25000000  0.15000000       0.012
   0.05000000  0.05000000  0.65000000       0.006
  -0.05000000  0.15000000  0.75000000       0.012
   0.85000000 -0.75000000 -0.15000000       0.012
   0.75000000 -0.65000000 -0.05000000       0.012
   0.65000000 -0.55000000  0.05000000       0.012
   0.55000000 -0.45000000  0.15000000       0.012
   0.45000000 -0.35000000  0.25000000       0.012
   0.05000000  0.05000000  0.85000000       0.006
   0.95000000 -0.85000000 -0.05000000       0.012
   0.85000000 -0.75000000  0.05000000       0.012
   0.75000000 -0.65000000  0.15000000       0.012
   0.65000000 -0.55000000  0.25000000       0.012
   0.55000000 -0.45000000  0.35000000       0.012
   0.05000000  0.05000000 -0.95000000       0.006
  -0.05000000  0.15000000 -0.85000000       0.012
  -0.15000000  0.25000000 -0.75000000       0.012
  -0.25000000  0.35000000 -0.65000000       0.012
   0.05000000  0.05000000 -0.75000000       0.006
  -0.05000000  0.15000000 -0.65000000       0.012
  -0.15000000  0.25000000 -0.55000000       0.012
   0.05000000  0.05000000 -0.55000000       0.006
  -0.05000000  0.15000000 -0.45000000       0.012
   0.05000000  0.05000000 -0.35000000       0.006
   0.15000000  0.15000000  0.15000000       0.002
   0.05000000  0.25000000  0.25000000       0.006
  -0.05000000  0.35000000  0.35000000       0.006
  -0.15000000  0.45000000  0.45000000       0.006
   0.75000000 -0.45000000 -0.45000000       0.006
   0.65000000 -0.35000000 -0.35000000       0.006
   0.55000000 -0.25000000 -0.25000000       0.006
   0.45000000 -0.15000000 -0.15000000       0.006
   0.15000000  0.15000000  0.35000000       0.006
   0.05000000  0.25000000  0.45000000       0.012
  -0.05000000  0.35000000  0.55000000       0.012
   0.85000000 -0.55000000 -0.35000000       0.012
   0.75000000 -0.45000000 -0.25000000       0.012
   0.65000000 -0.35000000 -0.15000000       0.012
   0.55000000 -0.25000000 -0.05000000       0.012
   0.15000000  0.15000000  0.55000000       0.006
   0.05000000  0.25000000  0.65000000       0.012
   0.95000000 -0.65000000 -0.25000000       0.012
   0.85000000 -0.55000000 -0.15000000       0.012
   0.75000000 -0.45000000 -0.05000000       0.012
   0.65000000 -0.35000000  0.05000000       0.012
   0.15000000  0.15000000  0.75000000       0.006
   1.05000000 -0.75000000 -0.15000000       0.012
   0.95000000 -0.65000000 -0.05000000       0.012
   0.85000000 -0.55000000  0.05000000       0.012
   0.75000000 -0.45000000  0.15000000       0.012
   0.15000000  0.15000000 -1.05000000       0.006
   0.05000000  0.25000000 -0.95000000       0.012
  -0.05000000  0.35000000 -0.85000000       0.012
   0.15000000  0.15000000 -0.85000000       0.006
   0.05000000  0.25000000 -0.75000000       0.012
   0.15000000  0.15000000 -0.65000000       0.006
   0.25000000  0.25000000  0.25000000       0.002
   0.15000000  0.35000000  0.35000000       0.006
   0.05000000  0.45000000  0.45000000       0.006
   0.95000000 -0.45000000 -0.45000000       0.006
   0.85000000 -0.35000000 -0.35000000       0.006
   0.75000000 -0.25000000 -0.25000000       0.006
   0.25000000  0.25000000  0.45000000       0.006
   0.15000000  0.35000000  0.55000000       0.012
   1.05000000 -0.55000000 -0.35000000       0.012
   0.95000000 -0.45000000 -0.25000000       0.012
   0.85000000 -0.35000000 -0.15000000       0.012
   0.25000000  0.25000000  0.65000000       0.006
   1.15000000 -0.65000000 -0.25000000       0.012
   1.05000000 -0.55000000 -0.15000000       0.012
   0.95000000 -0.45000000 -0.05000000       0.012
   0.25000000  0.25000000 -1.15000000       0.006
   0.15000000  0.35000000 -1.05000000       0.012
   0.25000000  0.25000000 -0.95000000       0.006
   0.35000000  0.35000000  0.35000000       0.002
   0.25000000  0.45000000  0.45000000       0.006
   1.15000000 -0.45000000 -0.45000000       0.006
   1.05000000 -0.35000000 -0.35000000       0.006
   0.35000000  0.35000000  0.55000000       0.006
   1.25000000 -0.55000000 -0.35000000       0.012
   1.15000000 -0.45000000 -0.25000000       0.012
   0.35000000  0.35000000 -1.25000000       0.006
   0.45000000  0.45000000  0.45000000       0.002
   1.35000000 -0.45000000 -0.45000000       0.006
 
 k-points in reciprocal lattice and weights: 10x10x10                                
   0.05000000  0.05000000  0.05000000       0.002
   0.15000000  0.05000000  0.05000000       0.006
   0.25000000  0.05000000  0.05000000       0.006
   0.35000000  0.05000000  0.05000000       0.006
   0.45000000  0.05000000  0.05000000       0.006
  -0.45000000  0.05000000  0.05000000       0.006
  -0.35000000  0.05000000  0.05000000       0.006
  -0.25000000  0.05000000  0.05000000       0.006
  -0.15000000  0.05000000  0.05000000       0.006
  -0.05000000  0.05000000  0.05000000       0.006
   0.15000000  0.15000000  0.05000000       0.006
   0.25000000  0.15000000  0.05000000       0.012
   0.35000000  0.15000000  0.05000000       0.012
   0.45000000  0.15000000  0.05000000       0.012
  -0.45000000  0.15000000  0.05000000       0.012
  -0.35000000  0.15000000  0.05000000       0.012
  -0.25000000  0.15000000  0.05000000       0.012
  -0.15000000  0.15000000  0.05000000       0.012
  -0.05000000  0.15000000  0.05000000       0.012
   0.25000000  0.25000000  0.05000000       0.006
   0.35000000  0.25000000  0.05000000       0.012
   0.45000000  0.25000000  0.05000000       0.012
  -0.45000000  0.25000000  0.05000000       0.012
  -0.35000000  0.25000000  0.05000000       0.012
  -0.25000000  0.25000000  0.05000000       0.012
  -0.15000000  0.25000000  0.05000000       0.012
  -0.05000000  0.25000000  0.05000000       0.012
   0.35000000  0.35000000  0.05000000       0.006
   0.45000000  0.35000000  0.05000000       0.012
  -0.45000000  0.35000000  0.05000000       0.012
  -0.35000000  0.35000000  0.05000000       0.012
  -0.25000000  0.35000000  0.05000000       0.012
  -0.15000000  0.35000000  0.05000000       0.012
  -0.05000000  0.35000000  0.05000000       0.012
   0.45000000  0.45000000  0.05000000       0.006
  -0.45000000  0.45000000  0.05000000       0.012
  -0.35000000  0.45000000  0.05000000       0.012
  -0.25000000  0.45000000  0.05000000       0.012
  -0.15000000  0.45000000  0.05000000       0.012
  -0.05000000  0.45000000  0.05000000       0.012
  -0.45000000 -0.45000000  0.05000000       0.006
  -0.35000000 -0.45000000  0.05000000       0.012
  -0.25000000 -0.45000000  0.05000000       0.012
  -0.15000000 -0.45000000  0.05000000       0.012
  -0.35000000 -0.35000000  0.05000000       0.006
  -0.25000000 -0.35000000  0.05000000       0.012
  -0.15000000 -0.35000000  0.05000000       0.012
  -0.25000000 -0.25000000  0.05000000       0.006
  -0.15000000 -0.25000000  0.05000000       0.012
  -0.15000000 -0.15000000  0.05000000       0.006
   0.15000000  0.15000000  0.15000000       0.002
   0.25000000  0.15000000  0.15000000       0.006
   0.35000000  0.15000000  0.15000000       0.006
   0.45000000  0.15000000  0.15000000       0.006
  -0.45000000  0.15000000  0.15000000       0.006
  -0.35000000  0.15000000  0.15000000       0.006
  -0.25000000  0.15000000  0.15000000       0.006
  -0.15000000  0.15000000  0.15000000       0.006
   0.25000000  0.25000000  0.15000000       0.006
   0.35000000  0.25000000  0.15000000       0.012
   0.45000000  0.25000000  0.15000000       0.012
  -0.45000000  0.25000000  0.15000000       0.012
  -0.35000000  0.25000000  0.15000000       0.012
  -0.25000000  0.25000000  0.15000000       0.012
  -0.15000000  0.25000000  0.15000000       0.012
   0.35000000  0.35000000  0.15000000       0.006
   0.45000000  0.35000000  0.15000000       0.012
  -0.45000000  0.35000000  0.15000000       0.012
  -0.35000000  0.35000000  0.15000000       0.012
  -0.25000000  0.35000000  0.15000000       0.012
  -0.15000000  0.35000000  0.15000000       0.012
   0.45000000  0.45000000  0.15000000       0.006
  -0.45000000  0.45000000  0.15000000       0.012
  -0.35000000  0.45000000  0.15000000       0.012
  -0.25000000  0.45000000  0.15000000       0.012
  -0.15000000  0.45000000  0.15000000       0.012
  -0.45000000 -0.45000000  0.15000000       0.006
  -0.35000000 -0.45000000  0.15000000       0.012
  -0.25000000 -0.45000000  0.15000000       0.012
  -0.35000000 -0.35000000  0.15000000       0.006
  -0.25000000 -0.35000000  0.15000000       0.012
  -0.25000000 -0.25000000  0.15000000       0.006
   0.25000000  0.25000000  0.25000000       0.002
   0.35000000  0.25000000  0.25000000       0.006
   0.45000000  0.25000000  0.25000000       0.006
  -0.45000000  0.25000000  0.25000000       0.006
  -0.35000000  0.25000000  0.25000000       0.006
  -0.25000000  0.25000000  0.25000000       0.006
   0.35000000  0.35000000  0.25000000       0.006
   0.45000000  0.35000000  0.25000000       0.012
  -0.45000000  0.35000000  0.25000000       0.012
  -0.35000000  0.35000000  0.25000000       0.012
  -0.25000000  0.35000000  0.25000000       0.012
   0.45000000  0.45000000  0.25000000       0.006
  -0.45000000  0.45000000  0.25000000       0.012
  -0.35000000  0.45000000  0.25000000       0.012
  -0.25000000  0.45000000  0.25000000       0.012
  -0.45000000 -0.45000000  0.25000000       0.006
  -0.35000000 -0.45000000  0.25000000       0.012
  -0.35000000 -0.35000000  0.25000000       0.006
   0.35000000  0.35000000  0.35000000       0.002
   0.45000000  0.35000000  0.35000000       0.006
  -0.45000000  0.35000000  0.35000000       0.006
  -0.35000000  0.35000000  0.35000000       0.006
   0.45000000  0.45000000  0.35000000       0.006
  -0.45000000  0.45000000  0.35000000       0.012
  -0.35000000  0.45000000  0.35000000       0.012
  -0.45000000 -0.45000000  0.35000000       0.006
   0.45000000  0.45000000  0.45000000       0.002
  -0.45000000  0.45000000  0.45000000       0.006
 
 position of ions in fractional coordinates (direct lattice) 
   0.00000000  0.00000000  0.00000000
 
 position of ions in cartesian coordinates  (Angst):
   0.00000000  0.00000000  0.00000000
 


--------------------------------------------------------------------------------------------------------


 k-point  1 :   0.0500 0.0500 0.0500  plane waves:     168
 k-point  2 :   0.1500 0.0500 0.0500  plane waves:     158
 k-point  3 :   0.2500 0.0500 0.0500  plane waves:     154
 k-point  4 :   0.3500 0.0500 0.0500  plane waves:     153
 k-point  5 :   0.4500 0.0500 0.0500  plane waves:     153
 k-point  6 :  -0.4500 0.0500 0.0500  plane waves:     156
 k-point  7 :  -0.3500 0.0500 0.0500  plane waves:     151
 k-point  8 :  -0.2500 0.0500 0.0500  plane waves:     152
 k-point  9 :  -0.1500 0.0500 0.0500  plane waves:     154
 k-point 10 :  -0.0500 0.0500 0.0500  plane waves:     160
 k-point 11 :   0.1500 0.1500 0.0500  plane waves:     157
 k-point 12 :   0.2500 0.1500 0.0500  plane waves:     155
 k-point 13 :   0.3500 0.1500 0.0500  plane waves:     153
 k-point 14 :   0.4500 0.1500 0.0500  plane waves:     151
 k-point 15 :  -0.4500 0.1500 0.0500  plane waves:     157
 k-point 16 :  -0.3500 0.1500 0.0500  plane waves:     154
 k-point 17 :  -0.2500 0.1500 0.0500  plane waves:     152
 k-point 18 :  -0.1500 0.1500 0.0500  plane waves:     153
 k-point 19 :  -0.0500 0.1500 0.0500  plane waves:     156
 k-point 20 :   0.2500 0.2500 0.0500  plane waves:     154
 k-point 21 :   0.3500 0.2500 0.0500  plane waves:     152
 k-point 22 :   0.4500 0.2500 0.0500  plane waves:     150
 k-point 23 :  -0.4500 0.2500 0.0500  plane waves:     154
 k-point 24 :  -0.3500 0.2500 0.0500  plane waves:     155
 k-point 25 :  -0.2500 0.2500 0.0500  plane waves:     152
 k-point 26 :  -0.1500 0.2500 0.0500  plane waves:     151
 k-point 27 :  -0.0500 0.2500 0.0500  plane waves:     153
 k-point 28 :   0.3500 0.3500 0.0500  plane waves:     153
 k-point 29 :   0.4500 0.3500 0.0500  plane waves:     154
 k-point 30 :  -0.4500 0.3500 0.0500  plane waves:     152
 k-point 31 :  -0.3500 0.3500 0.0500  plane waves:     154
 k-point 32 :  -0.2500 0.3500 0.0500  plane waves:     153
 k-point 33 :  -0.1500 0.3500 0.0500  plane waves:     154
 k-point 34 :  -0.0500 0.3500 0.0500  plane waves:     151
 k-point 35 :   0.4500 0.4500 0.0500  plane waves:     156
 k-point 36 :  -0.4500 0.4500 0.0500  plane waves:     153
 k-point 37 :  -0.3500 0.4500 0.0500  plane waves:     154
 k-point 38 :  -0.2500 0.4500 0.0500  plane waves:     153
 k-point 39 :  -0.1500 0.4500 0.0500  plane waves:     156
 k-point 40 :  -0.0500 0.4500 0.0500  plane waves:     154
 k-point 41 :  -0.4500-0.4500 0.0500  plane waves:     150
 k-point 42 :  -0.3500-0.4500 0.0500  plane waves:     153
 k-point 43 :  -0.2500-0.4500 0.0500  plane waves:     152
 k-point 44 :  -0.1500-0.4500 0.0500  plane waves:     153
 k-point 45 :  -0.3500-0.3500 0.0500  plane waves:     152
 k-point 46 :  -0.2500-0.3500 0.0500  plane waves:     151
 k-point 47 :  -0.1500-0.3500 0.0500  plane waves:     150
 k-point 48 :  -0.2500-0.2500 0.0500  plane waves:     151
 k-point 49 :  -0.1500-0.2500 0.0500  plane waves:     154
 k-point 50 :  -0.1500-0.1500 0.0500  plane waves:     157
 k-point 51 :   0.1500 0.1500 0.1500  plane waves:     153
 k-point 52 :   0.2500 0.1500 0.1500  plane waves:     158
 k-point 53 :   0.3500 0.1500 0.1500  plane waves:     154
 k-point 54 :   0.4500 0.1500 0.1500  plane waves:     152
 k-point 55 :  -0.4500 0.1500 0.1500  plane waves:     156
 k-point 56 :  -0.3500 0.1500 0.1500  plane waves:     155
 k-point 57 :  -0.2500 0.1500 0.1500  plane waves:     151
 k-point 58 :  -0.1500 0.1500 0.1500  plane waves:     152
 k-point 59 :   0.2500 0.2500 0.1500  plane waves:     155
 k-point 60 :   0.3500 0.2500 0.1500  plane waves:     151
 k-point 61 :   0.4500 0.2500 0.1500  plane waves:     152
 k-point 62 :  -0.4500 0.2500 0.1500  plane waves:     154
 k-point 63 :  -0.3500 0.2500 0.1500  plane waves:     154
 k-point 64 :  -0.2500 0.2500 0.1500  plane waves:     151
 k-point 65 :  -0.1500 0.2500 0.1500  plane waves:     150
 k-point 66 :   0.3500 0.3500 0.1500  plane waves:     152
 k-point 67 :   0.4500 0.3500 0.1500  plane waves:     151
 k-point 68 :  -0.4500 0.3500 0.1500  plane waves:     153
 k-point 69 :  -0.3500 0.3500 0.1500  plane waves:     155
 k-point 70 :  -0.2500 0.3500 0.1500  plane waves:     155
 k-point 71 :  -0.1500 0.3500 0.1500  plane waves:     151
 k-point 72 :   0.4500 0.4500 0.1500  plane waves:     152
 k-point 73 :  -0.4500 0.4500 0.1500  plane waves:     152
 k-point 74 :  -0.3500 0.4500 0.1500  plane waves:     155
 k-point 75 :  -0.2500 0.4500 0.1500  plane waves:     152
 k-point 76 :  -0.1500 0.4500 0.1500  plane waves:     152
 k-point 77 :  -0.4500-0.4500 0.1500  plane waves:     152
 k-point 78 :  -0.3500-0.4500 0.1500  plane waves:     155
 k-point 79 :  -0.2500-0.4500 0.1500  plane waves:     156
 k-point 80 :  -0.3500-0.3500 0.1500  plane waves:     152
 k-point 81 :  -0.2500-0.3500 0.1500  plane waves:     152
 k-point 82 :  -0.2500-0.2500 0.1500  plane waves:     151
 k-point 83 :   0.2500 0.2500 0.2500  plane waves:     150
 k-point 84 :   0.3500 0.2500 0.2500  plane waves:     150
 k-point 85 :   0.4500 0.2500 0.2500  plane waves:     151
 k-point 86 :  -0.4500 0.2500 0.2500  plane waves:     153
 k-point 87 :  -0.3500 0.2500 0.2500  plane waves:     153
 k-point 88 :  -0.2500 0.2500 0.2500  plane waves:     154
 k-point 89 :   0.3500 0.3500 0.2500  plane waves:     151
 k-point 90 :   0.4500 0.3500 0.2500  plane waves:     152
 k-point 91 :  -0.4500 0.3500 0.2500  plane waves:     153
 k-point 92 :  -0.3500 0.3500 0.2500  plane waves:     152
 k-point 93 :  -0.2500 0.3500 0.2500  plane waves:     155
 k-point 94 :   0.4500 0.4500 0.2500  plane waves:     150
 k-point 95 :  -0.4500 0.4500 0.2500  plane waves:     152
 k-point 96 :  -0.3500 0.4500 0.2500  plane waves:     153
 k-point 97 :  -0.2500 0.4500 0.2500  plane waves:     153
 k-point 98 :  -0.4500-0.4500 0.2500  plane waves:     154
 k-point 99 :  -0.3500-0.4500 0.2500  plane waves:     154
 k-point ** :  -0.3500-0.3500 0.2500  plane waves:     154
 k-point ** :   0.3500 0.3500 0.3500  plane waves:     153
 k-point ** :   0.4500 0.3500 0.3500  plane waves:     151
 k-point ** :  -0.4500 0.3500 0.3500  plane waves:     155
 k-point ** :  -0.3500 0.3500 0.3500  plane waves:     156
 k-point ** :   0.4500 0.4500 0.3500  plane waves:     151
 k-point ** :  -0.4500 0.4500 0.3500  plane waves:     156
 k-point ** :  -0.3500 0.4500 0.3500  plane waves:     153
 k-point ** :  -0.4500-0.4500 0.3500  plane waves:     154
 k-point ** :   0.4500 0.4500 0.4500  plane waves:     156
 k-point ** :  -0.4500 0.4500 0.4500  plane waves:     158

 maximum and minimum number of plane-waves per node :       168      150

 maximum number of plane-waves:       168
 maximum index in each direction: 
   IXMAX=    4   IYMAX=    4   IZMAX=    3
   IXMIN=   -4   IYMIN=   -4   IZMIN=   -4


 serial   3D FFT for wavefunctions
 parallel 3D FFT for charge:
    minimum data exchange during FFTs selected (reduces bandwidth)


 total amount of memory used by VASP MPI-rank0    36051. kBytes
=======================================================================

   base      :      30000. kBytes
   nonl-proj :       2663. kBytes
   fftplans  :        408. kBytes
   grid      :        964. kBytes
   one-center:         31. kBytes
   wavefun   :       1985. kBytes
 
     INWAV:  cpu time    0.0425: real time    0.0488
 Broyden mixing: mesh for mixing (old mesh)
   NGX =  7   NGY =  7   NGZ =  7
  (NGX  = 28   NGY  = 28   NGZ  = 28)
  gives a total of    343 points

 charge density for first step will be calculated from the start-wavefunctions


--------------------------------------------------------------------------------------------------------


 Maximum index for augmentation-charges         1989 (set IRDMAX)


--------------------------------------------------------------------------------------------------------


 initial charge from wavefunction
 First call to EWALD:  gamma=   0.799
 Maximum number of real-space cells 3x 3x 3
 Maximum number of reciprocal cells 3x 3x 3

    FEWALD:  cpu time    0.0011: real time    0.0011


--------------------------------------- Iteration      1(   1)  ---------------------------------------


    POTLOK:  cpu time    0.0065: real time    0.0087
    SETDIJ:  cpu time    0.0036: real time    0.0037
     EDDAV:  cpu time    0.3520: real time    0.3586
       DOS:  cpu time    0.0020: real time    0.0020
    CHARGE:  cpu time    0.0121: real time    0.0121
    MIXING:  cpu time    0.0004: real time    0.0004
    --------------------------------------------
      LOOP:  cpu time    0.3766: real time    0.3855

 eigenvalue-minimisations  :  5640
 total energy-change (2. order) :-0.5476681E+01  (-0.2206982E-03)
 number of electron       9.9999992 magnetization       0.6250326
 augmentation part        6.1567698 magnetization       0.5990403

 Broyden mixing:
  rms(total) = 0.99353E-02    rms(broyden)= 0.99346E-02
  rms(prec ) = 0.36502E-01
  weight for this iteration     100.00

 Free energy of the ion-electron system (eV)
  ---------------------------------------------------
  alpha Z        PSCENC =        46.77319923
  Ewald energy   TEWEN  =      -937.79883590
  -Hartree energ DENC   =      -224.76524819
  -exchange      EXHF   =         0.00000000
  -V(xc)+E(xc)   XCENC  =        30.71966656
  PAW double counting   =      1140.15108463    -1208.88807014
  entropy T*S    EENTRO =        -0.00179601
  eigenvalues    EBANDS =        70.68627548
  atomic energy  EATOM  =      1077.64704370
  Solvation  Ediel_sol  =         0.00000000
  ---------------------------------------------------
  free energy    TOTEN  =        -5.47668065 eV

  energy without entropy =       -5.47488463  energy(sigma->0) =       -5.47608197


--------------------------------------------------------------------------------------------------------




--------------------------------------- Iteration      1(   2)  ---------------------------------------


    POTLOK:  cpu time    0.0061: real time    0.0062
    SETDIJ:  cpu time    0.0035: real time    0.0034
     EDDAV:  cpu time    0.3684: real time    0.3753
       DOS:  cpu time    0.0020: real time    0.0020
    CHARGE:  cpu time    0.0132: real time    0.0132
    MIXING:  cpu time    0.0009: real time    0.0004
    --------------------------------------------
      LOOP:  cpu time    0.3942: real time    0.4007

 eigenvalue-minimisations  :  5928
 total energy-change (2. order) : 0.8965412E-04  (-0.2328602E-03)
 number of electron       9.9999992 magnetization       0.6226302
 augmentation part        6.1675417 magnetization       0.5974157

 Broyden mixing:
  rms(total) = 0.68946E-02    rms(broyden)= 0.68938E-02
  rms(prec ) = 0.19804E-01
  weight for this iteration     100.00

 eigenvalues of (default mixing * dielectric matrix)
  average eigenvalue GAMMA=   0.5730
  0.5730

 Free energy of the ion-electron system (eV)
  ---------------------------------------------------
  alpha Z        PSCENC =        46.77319923
  Ewald energy   TEWEN  =      -937.79883590
  -Hartree energ DENC   =      -224.49244682
  -exchange      EXHF   =         0.00000000
  -V(xc)+E(xc)   XCENC  =        30.70645298
  PAW double counting   =      1140.16767387    -1208.83041088
  entropy T*S    EENTRO =        -0.00186709
  eigenvalues    EBANDS =        70.35259992
  atomic energy  EATOM  =      1077.64704370
  Solvation  Ediel_sol  =         0.00000000
  ---------------------------------------------------
  free energy    TOTEN  =        -5.47659099 eV

  energy without entropy =       -5.47472390  energy(sigma->0) =       -5.47596863


--------------------------------------------------------------------------------------------------------




--------------------------------------- Iteration      1(   3)  ---------------------------------------


    POTLOK:  cpu time    0.0058: real time    0.0063
    SETDIJ:  cpu time    0.0035: real time    0.0034
     EDDAV:  cpu time    0.2572: real time    0.2635
       DOS:  cpu time    0.0020: real time    0.0020
    --------------------------------------------
      LOOP:  cpu time    0.2685: real time    0.2752

 eigenvalue-minimisations  :  3140
 total energy-change (2. order) : 0.5142781E-04  (-0.3472409E-04)
 number of electron       9.9999992 magnetization       0.6226302
 augmentation part        6.1675417 magnetization       0.5974157

 Free energy of the ion-electron system (eV)
  ---------------------------------------------------
  alpha Z        PSCENC =        46.77319923
  Ewald energy   TEWEN  =      -937.79883590
  -Hartree energ DENC   =      -224.58615961
  -exchange      EXHF   =         0.00000000
  -V(xc)+E(xc)   XCENC  =        30.71094664
  PAW double counting   =      1140.24697284    -1208.95002802
  entropy T*S    EENTRO =        -0.00183825
  eigenvalues    EBANDS =        70.48215981
  atomic energy  EATOM  =      1077.64704370
  Solvation  Ediel_sol  =         0.00000000
  ---------------------------------------------------
  free energy    TOTEN  =        -5.47653956 eV

  energy without entropy =       -5.47470131  energy(sigma->0) =       -5.47592681


--------------------------------------------------------------------------------------------------------




 average (electrostatic) potential at core
  the test charge radii are     0.9791
  (the norm of the test charge is              1.0000)
       1 -82.0217
 
 
 
 E-fermi :   9.3560     XC(G=0): -13.2456     alpha+bet :-16.4271


 spin component 1

 k-point     1 :       0.0500    0.0500    0.0500
  band No.  band energies     occupation 
      1       0.4486      1.00000
      2       6.9118      1.00000
      3       6.9591      1.00000
      4       6.9591      1.00000
      5       8.0838      1.00000
      6       8.0838      1.00000
      7      32.7614      0.00000
      8      35.5345      0.00000
      9      36.6500      0.00000
     10      36.6500      0.00000
     11      40.2004      0.00000
     12      40.2004      0.00000

 k-point     2 :       0.1500    0.0500    0.0500
  band No.  band energies     occupation 
      1       0.9612      1.00000
      2       6.7794      1.00000
      3       7.0596      1.00000
      4       7.0748      1.00000
      5       7.9853      1.00000
      6       8.1126      1.00000
      7      30.5604      0.00000
      8      32.8995      0.00000
      9      35.5489      0.00000
     10      37.3450      0.00000
     11      39.9816      0.00000
     12      40.4157      0.00000

 k-point     3 :       0.2500    0.0500    0.0500
  band No.  band energies     occupation 
      1       2.1558      1.00000
      2       6.5937      1.00000
      3       7.1673      1.00000
      4       7.1956      1.00000
      5       7.9708      1.00000
      6       8.2282      1.00000
      7      25.4956      0.00000
      8      31.8079      0.00000
      9      34.9624      0.00000
     10      36.7413      0.00000
     11      39.6351      0.00000
     12      39.9417      0.00000

 k-point     4 :       0.3500    0.0500    0.0500
  band No.  band energies     occupation 
      1       3.6419      1.00000
      2       6.7481      1.00000
      3       7.0872      1.00000
      4       7.1345      1.00000
      5       8.2486      1.00000
      6       8.5579      1.00000
      7      20.6420      0.00000
      8      31.1815      0.00000
      9      33.8415      0.00000
     10      35.9468      0.00000
     11      37.6741      0.00000
     12      39.4646      0.00000

 k-point     5 :       0.4500    0.0500    0.0500
  band No.  band energies     occupation 
      1       4.4662      1.00000
      2       6.9563      1.00000
      3       7.0171      1.00000
      4       7.7969      1.00000
      5       8.5963      1.00000
      6       9.0924      1.03429
      7      16.6146      0.00000
      8      30.9447      0.00000
      9      33.0855      0.00000
     10      34.4036      0.00000
     11      37.1914      0.00000
     12      38.5932      0.00000

 k-point     6 :      -0.4500    0.0500    0.0500
  band No.  band energies     occupation 
      1       4.5859      1.00000
      2       6.9084      1.00000
      3       6.9866      1.00000
      4       8.2159      1.00000
      5       8.7585      1.00010
      6       9.6204     -0.03418
      7      15.0944      0.00000
      8      31.0724      0.00000
      9      33.1445      0.00000
     10      33.2469      0.00000
     11      37.8035      0.00000
     12      37.8964      0.00000

 k-point     7 :      -0.3500    0.0500    0.0500
  band No.  band energies     occupation 
      1       4.3026      1.00000
      2       6.9823      1.00000
      3       7.0626      1.00000
      4       7.3648      1.00000
      5       8.6495      1.00000
      6       8.7382      1.00006
      7      17.8136      0.00000
      8      31.5474      0.00000
      9      32.6485      0.00000
     10      34.4077      0.00000
     11      37.7496      0.00000
     12      39.1175      0.00000

 k-point     8 :      -0.2500    0.0500    0.0500
  band No.  band energies     occupation 
      1       3.1653      1.00000
      2       6.6056      1.00000
      3       7.1272      1.00000
      4       7.1748      1.00000
      5       8.2007      1.00000
      6       8.3695      1.00000
      7      22.1958      0.00000
      8      32.3058      0.00000
      9      32.8599      0.00000
     10      36.2082      0.00000
     11      38.1186      0.00000
     12      41.0365      0.00000

 k-point     9 :      -0.1500    0.0500    0.0500
  band No.  band energies     occupation 
      1       1.6952      1.00000
      2       6.6367      1.00000
      3       7.1616      1.00000
      4       7.1702      1.00000
      5       7.9509      1.00000
      6       8.1600      1.00000
      7      27.2092      0.00000
      8      33.1102      0.00000
      9      33.6677      0.00000
     10      37.3989      0.00000
     11      38.8546      0.00000
     12      42.6598      0.00000

 k-point    10 :      -0.0500    0.0500    0.0500
  band No.  band energies     occupation 
      1       0.7071      1.00000
      2       6.8276      1.00000
      3       7.0241      1.00000
      4       7.0277      1.00000
      5       8.0023      1.00000
      6       8.1198      1.00000
      7      31.9468      0.00000
      8      34.2280      0.00000
      9      34.9920      0.00000
     10      36.6010      0.00000
     11      40.2871      0.00000
     12      41.8107      0.00000

 k-point    11 :       0.1500    0.1500    0.0500
  band No.  band energies     occupation 
      1       1.2128      1.00000
      2       6.6590      1.00000
      3       7.1596      1.00000
      4       7.1625      1.00000
      5       7.8573      1.00000
      6       8.1886      1.00000
      7      30.7490      0.00000
      8      32.9363      0.00000
      9      33.0869      0.00000
     10      35.2729      0.00000
     11      40.7415      0.00000
     12      42.2048      0.00000

 k-point    12 :       0.2500    0.1500    0.0500
  band No.  band energies     occupation 
      1       2.1686      1.00000
      2       6.4369      1.00000
      3       7.2411      1.00000
      4       7.3579      1.00000
      5       7.7997      1.00000
      6       8.3152      1.00000
      7      27.5672      0.00000
      8      29.7767      0.00000
      9      33.5513      0.00000
     10      34.9677      0.00000
     11      38.8729      0.00000
     12      42.3463      0.00000

 k-point    13 :       0.3500    0.1500    0.0500
  band No.  band energies     occupation 
      1       3.5795      1.00000
      2       6.3333      1.00000
      3       7.0408      1.00000
      4       7.3893      1.00000
      5       8.1974      1.00000
      6       8.6630      1.00001
      7      22.5661      0.00000
      8      28.9720      0.00000
      9      32.0253      0.00000
     10      34.3473      0.00000
     11      40.5484      0.00000
     12      40.9400      0.00000

 k-point    14 :       0.4500    0.1500    0.0500
  band No.  band energies     occupation 
      1       4.6468      1.00000
      2       6.6807      1.00000
      3       6.9016      1.00000
      4       7.2842      1.00000
      5       8.6334      1.00000
      6       9.5595     -0.02685
      7      18.1313      0.00000
      8      28.7366      0.00000
      9      30.3548      0.00000
     10      33.4952      0.00000
     11      39.7985      0.00000
     12      42.1717      0.00000

 k-point    15 :      -0.4500    0.1500    0.0500
  band No.  band energies     occupation 
      1       4.8972      1.00000
      2       6.6699      1.00000
      3       7.1974      1.00000
      4       7.3836      1.00000
      5       8.7295      1.00004
      6      10.9879     -0.00000
      7      15.2198      0.00000
      8      28.3431      0.00000
      9      29.9072      0.00000
     10      33.3461      0.00000
     11      39.0873      0.00000
     12      41.7976      0.00000

 k-point    16 :      -0.3500    0.1500    0.0500
  band No.  band energies     occupation 
      1       4.8031      1.00000
      2       6.7446      1.00000
      3       7.0963      1.00000
      4       7.2391      1.00000
      5       8.5405      1.00000
      6      10.1423     -0.00000
      7      16.8950      0.00000
      8      27.6635      0.00000
      9      31.0680      0.00000
     10      34.0847      0.00000
     11      38.7180      0.00000
     12      41.5007      0.00000

 k-point    17 :      -0.2500    0.1500    0.0500
  band No.  band energies     occupation 
      1       4.0453      1.00000
      2       6.4608      1.00000
      3       6.9545      1.00000
      4       7.3441      1.00000
      5       8.1286      1.00000
      6       9.0446      1.02507
      7      21.0154      0.00000
      8      27.5636      0.00000
      9      32.9005      0.00000
     10      35.6470      0.00000
     11      38.7145      0.00000
     12      40.7944      0.00000

 k-point    18 :      -0.1500    0.1500    0.0500
  band No.  band energies     occupation 
      1       2.6147      1.00000
      2       6.4303      1.00000
      3       7.1566      1.00000
      4       7.3864      1.00000
      5       7.7975      1.00000
      6       8.4709      1.00000
      7      25.8619      0.00000
      8      28.1293      0.00000
      9      35.0867      0.00000
     10      36.5374      0.00000
     11      39.5627      0.00000
     12      40.0472      0.00000

 k-point    19 :      -0.0500    0.1500    0.0500
  band No.  band energies     occupation 
      1       1.4579      1.00000
      2       6.6421      1.00000
      3       7.1622      1.00000
      4       7.1755      1.00000
      5       7.8803      1.00000
      6       8.1889      1.00000
      7      29.0345      0.00000
      8      31.3109      0.00000
      9      34.8694      0.00000
     10      36.9563      0.00000
     11      39.6712      0.00000
     12      41.6671      0.00000

 k-point    20 :       0.2500    0.2500    0.0500
  band No.  band energies     occupation 
      1       2.8222      1.00000
      2       6.1671      1.00000
      3       7.3927      1.00000
      4       7.6063      1.00000
      5       7.7670      1.00000
      6       8.3960      1.00000
      7      28.0189      0.00000
      8      29.4738      0.00000
      9      30.5946      0.00000
     10      31.6399      0.00000
     11      35.9757      0.00000
     12      46.3164      0.00000

 k-point    21 :       0.3500    0.2500    0.0500
  band No.  band energies     occupation 
      1       3.9175      1.00000
      2       5.9434      1.00000
      3       7.1699      1.00000
      4       7.8516      1.00000
      5       8.2325      1.00000
      6       8.6829      1.00001
      7      24.9542      0.00000
      8      26.9607      0.00000
      9      28.7739      0.00000
     10      32.2272      0.00000
     11      36.1249      0.00000
     12      45.8074      0.00000

 k-point    22 :       0.4500    0.2500    0.0500
  band No.  band energies     occupation 
      1       4.9312      1.00000
      2       5.9394      1.00000
      3       6.9105      1.00000
      4       7.7901      1.00000
      5       8.6899      1.00001
      6       9.9000     -0.00041
      7      20.3178      0.00000
      8      26.1009      0.00000
      9      26.9685      0.00000
     10      32.3361      0.00000
     11      39.5040      0.00000
     12      44.2565      0.00000

 k-point    23 :      -0.4500    0.2500    0.0500
  band No.  band energies     occupation 
      1       5.3498      1.00000
      2       6.1257      1.00000
      3       6.8669      1.00000
      4       7.6660      1.00000
      5       8.7452      1.00007
      6      12.1466     -0.00000
      7      16.4249      0.00000
      8      24.4517      0.00000
      9      27.3187      0.00000
     10      32.4766      0.00000
     11      42.2045      0.00000
     12      44.8352      0.00000

 k-point    24 :      -0.3500    0.2500    0.0500
  band No.  band energies     occupation 
      1       5.4596      1.00000
      2       6.2747      1.00000
      3       6.7483      1.00000
      4       7.6082      1.00000
      5       8.5041      1.00000
      6      12.2805     -0.00000
      7      16.4376      0.00000
      8      23.2952      0.00000
      9      28.6417      0.00000
     10      33.1944      0.00000
     11      41.3972      0.00000
     12      45.2102      0.00000

 k-point    25 :      -0.2500    0.2500    0.0500
  band No.  band energies     occupation 
      1       5.1354      1.00000
      2       6.3029      1.00000
      3       6.5857      1.00000
      4       7.6688      1.00000
      5       8.0721      1.00000
      6      10.3278     -0.00000
      7      20.3167      0.00000
      8      22.9112      0.00000
      9      30.5992      0.00000
     10      34.7011      0.00000
     11      40.1170      0.00000
     12      44.0443      0.00000

 k-point    26 :      -0.1500    0.2500    0.0500
  band No.  band energies     occupation 
      1       3.9759      1.00000
      2       6.2885      1.00000
      3       6.9335      1.00000
      4       7.5743      1.00000
      5       7.8431      1.00000
      6       9.1231      1.03484
      7      22.9332      0.00000
      8      25.2845      0.00000
      9      32.9418      0.00000
     10      36.6349      0.00000
     11      38.3086      0.00000
     12      41.8640      0.00000

 k-point    27 :      -0.0500    0.2500    0.0500
  band No.  band energies     occupation 
      1       2.8062      1.00000
      2       6.4894      1.00000
      3       7.1493      1.00000
      4       7.2664      1.00000
      5       7.9933      1.00000
      6       8.4158      1.00000
      7      23.9479      0.00000
      8      30.3508      0.00000
      9      33.9244      0.00000
     10      36.6971      0.00000
     11      38.6940      0.00000
     12      40.5110      0.00000

 k-point    28 :       0.3500    0.3500    0.0500
  band No.  band energies     occupation 
      1       4.4125      1.00000
      2       5.6462      1.00000
      3       7.7597      1.00000
      4       8.1843      1.00000
      5       8.5451      1.00000
      6       8.6304      1.00000
      7      25.2604      0.00000
      8      25.7749      0.00000
      9      26.5428      0.00000
     10      30.1312      0.00000
     11      33.7945      0.00000
     12      50.5836      0.00000

 k-point    29 :       0.4500    0.3500    0.0500
  band No.  band energies     occupation 
      1       4.8590      1.00000
      2       5.5114      1.00000
      3       7.7133      1.00000
      4       8.4013      1.00000
      5       8.7024      1.00002
      6      10.0585     -0.00000
      7      22.7336      0.00000
      8      23.2384      0.00000
      9      24.9734      0.00000
     10      31.1299      0.00000
     11      34.8606      0.00000
     12      48.8866      0.00000

 k-point    30 :      -0.4500    0.3500    0.0500
  band No.  band energies     occupation 
      1       5.2380      1.00000
      2       5.6032      1.00000
      3       7.3528      1.00000
      4       8.2380      1.00000
      5       8.7887      1.00023
      6      12.6126     -0.00000
      7      18.8447      0.00000
      8      21.0872      0.00000
      9      25.2537      0.00000
     10      31.6377      0.00000
     11      38.8036      0.00000
     12      46.9963      0.00000

 k-point    31 :      -0.3500    0.3500    0.0500
  band No.  band energies     occupation 
      1       5.6180      1.00000
      2       5.8268      1.00000
      3       6.8865      1.00000
      4       8.0522      1.00000
      5       8.5852      1.00000
      6      14.9980      0.00000
      7      16.0032      0.00000
      8      19.9672      0.00000
      9      26.4889      0.00000
     10      32.1841      0.00000
     11      43.8618      0.00000
     12      45.1288      0.00000

 k-point    32 :      -0.2500    0.3500    0.0500
  band No.  band energies     occupation 
      1       5.6981      1.00000
      2       6.1715      1.00000
      3       6.5019      1.00000
      4       7.8057      1.00000
      5       8.3432      1.00000
      6      12.3456     -0.00000
      7      17.9858      0.00000
      8      21.1264      0.00000
      9      28.4218      0.00000
     10      33.1828      0.00000
     11      42.4145      0.00000
     12      46.4004      0.00000

 k-point    33 :      -0.1500    0.3500    0.0500
  band No.  band energies     occupation 
      1       4.9834      1.00000
      2       6.5827      1.00000
      3       6.6760      1.00000
      4       7.4412      1.00000
      5       8.3119      1.00000
      6      10.2735     -0.00000
      7      18.4891      0.00000
      8      25.1851      0.00000
      9      30.7505      0.00000
     10      34.4837      0.00000
     11      39.4659      0.00000
     12      42.8612      0.00000

 k-point    34 :      -0.0500    0.3500    0.0500
  band No.  band energies     occupation 
      1       4.1614      1.00000
      2       6.8249      1.00000
      3       6.9794      1.00000
      4       7.1710      1.00000
      5       8.4106      1.00000
      6       8.8934      1.00257
      7      19.2885      0.00000
      8      29.9349      0.00000
      9      32.6989      0.00000
     10      34.7605      0.00000
     11      38.4133      0.00000
     12      40.2173      0.00000

 k-point    35 :       0.4500    0.4500    0.0500
  band No.  band energies     occupation 
      1       4.7621      1.00000
      2       5.2881      1.00000
      3       8.5761      1.00000
      4       8.6612      1.00001
      5       8.8146      1.00044
      6      10.6995     -0.00000
      7      20.4167      0.00000
      8      23.8719      0.00000
      9      24.6950      0.00000
     10      29.5849      0.00000
     11      33.0849      0.00000
     12      52.8530      0.00000

 k-point    36 :      -0.4500    0.4500    0.0500
  band No.  band energies     occupation 
      1       4.8829      1.00000
      2       5.2969      1.00000
      3       8.2667      1.00000
      4       8.6588      1.00000
      5       8.8649      1.00141
      6      12.4880     -0.00000
      7      18.8863      0.00000
      8      22.0561      0.00000
      9      23.9051      0.00000
     10      30.7222      0.00000
     11      34.4593      0.00000
     12      51.1139      0.00000

 k-point    37 :      -0.3500    0.4500    0.0500
  band No.  band energies     occupation 
      1       5.2194      1.00000
      2       5.5343      1.00000
      3       7.5147      1.00000
      4       8.3731      1.00000
      5       8.7667      1.00013
      6      13.9636     -0.00000
      7      18.3490      0.00000
      8      19.4344      0.00000
      9      24.9290      0.00000
     10      31.5190      0.00000
     11      38.6754      0.00000
     12      47.9786      0.00000

 k-point    38 :      -0.2500    0.4500    0.0500
  band No.  band energies     occupation 
      1       5.5401      1.00000
      2       5.9227      1.00000
      3       6.8736      1.00000
      4       7.8844      1.00000
      5       8.6763      1.00001
      6      13.7835     -0.00000
      7      15.9446      0.00000
      8      21.9350      0.00000
      9      26.7647      0.00000
     10      32.2741      0.00000
     11      43.3098      0.00000
     12      44.8165      0.00000

 k-point    39 :      -0.1500    0.4500    0.0500
  band No.  band energies     occupation 
      1       5.1699      1.00000
      2       6.4598      1.00000
      3       7.0578      1.00000
      4       7.3857      1.00000
      5       8.6531      1.00000
      6      11.8967     -0.00000
      7      15.3743      0.00000
      8      25.8257      0.00000
      9      29.0967      0.00000
     10      33.2366      0.00000
     11      40.1821      0.00000
     12      43.6370      0.00000

 k-point    40 :      -0.0500    0.4500    0.0500
  band No.  band energies     occupation 
      1       4.6618      1.00000
      2       6.8464      1.00000
      3       7.0696      1.00000
      4       7.6913      1.00000
      5       8.7039      1.00002
      6       9.9048     -0.00036
      7      15.7208      0.00000
      8      29.9736      0.00000
      9      31.7018      0.00000
     10      33.6003      0.00000
     11      38.1530      0.00000
     12      39.7747      0.00000

 k-point    41 :      -0.4500   -0.4500    0.0500
  band No.  band energies     occupation 
      1       4.7521      1.00000
      2       5.2105      1.00000
      3       8.7325      1.00005
      4       8.7603      1.00011
      5       8.8733      1.00169
      6      11.8142     -0.00000
      7      18.8091      0.00000
      8      23.5004      0.00000
      9      24.3000      0.00000
     10      29.4847      0.00000
     11      32.9832      0.00000
     12      53.2605      0.00000

 k-point    42 :      -0.3500   -0.4500    0.0500
  band No.  band energies     occupation 
      1       4.9000      1.00000
      2       5.3703      1.00000
      3       8.0637      1.00000
      4       8.5910      1.00000
      5       8.7979      1.00029
      6      11.3483     -0.00000
      7      20.5383      0.00000
      8      22.4031      0.00000
      9      24.2661      0.00000
     10      30.8552      0.00000
     11      34.5816      0.00000
     12      50.2260      0.00000

 k-point    43 :      -0.2500   -0.4500    0.0500
  band No.  band energies     occupation 
      1       5.1936      1.00000
      2       5.7449      1.00000
      3       7.1015      1.00000
      4       8.0268      1.00000
      5       8.7750      1.00016
      6      11.1206     -0.00000
      7      19.4768      0.00000
      8      23.5251      0.00000
      9      25.8953      0.00000
     10      31.8949      0.00000
     11      39.0746      0.00000
     12      45.6550      0.00000

 k-point    44 :      -0.1500   -0.4500    0.0500
  band No.  band energies     occupation 
      1       5.0491      1.00000
      2       6.3984      1.00000
      3       6.8780      1.00000
      4       7.4557      1.00000
      5       8.7403      1.00006
      6      10.6824     -0.00000
      7      17.1714      0.00000
      8      27.0464      0.00000
      9      28.2557      0.00000
     10      32.8471      0.00000
     11      40.9940      0.00000
     12      44.3445      0.00000

 k-point    45 :      -0.3500   -0.3500    0.0500
  band No.  band energies     occupation 
      1       4.7079      1.00000
      2       5.4374      1.00000
      3       8.2522      1.00000
      4       8.4560      1.00000
      5       8.7319      1.00005
      6       9.4087      0.28519
      7      22.7754      0.00000
      8      24.5907      0.00000
      9      25.4585      0.00000
     10      29.7947      0.00000
     11      33.3323      0.00000
     12      51.9811      0.00000

 k-point    46 :      -0.2500   -0.3500    0.0500
  band No.  band energies     occupation 
      1       4.5801      1.00000
      2       5.7083      1.00000
      3       7.3386      1.00000
      4       8.1352      1.00000
      5       8.5404      1.00000
      6       9.1292      1.03402
      7      23.8527      0.00000
      8      25.4949      0.00000
      9      26.1914      0.00000
     10      31.5726      0.00000
     11      35.3515      0.00000
     12      47.3822      0.00000

 k-point    47 :      -0.1500   -0.3500    0.0500
  band No.  band energies     occupation 
      1       4.3514      1.00000
      2       6.1449      1.00000
      3       6.9110      1.00000
      4       7.5684      1.00000
      5       8.4982      1.00000
      6       9.0832      1.03301
[...]
  band No.  band energies     occupation 
      1       4.7858      1.00000
      2       7.4661      1.00000
      3       7.6176      1.00000
      4       7.8268      1.00000
      5       9.1895      1.03317
      6      10.0473     -0.00003
      7      18.3096      0.00000
      8      28.8700      0.00000
      9      33.2433      0.00000
     10      34.4136      0.00000
     11      38.5615      0.00000
     12      39.8186      0.00000

 k-point   103 :      -0.4500    0.3500    0.3500
  band No.  band energies     occupation 
      1       5.6553      1.00000
      2       6.9959      1.00000
      3       7.3566      1.00000
      4       8.1424      1.00000
      5       9.1855      1.03394
      6      11.6444     -0.00000
      7      17.6856      0.00000
      8      24.3360      0.00000
      9      31.3750      0.00000
     10      32.4304      0.00000
     11      42.2036      0.00000
     12      42.2481      0.00000

 k-point   104 :      -0.3500    0.3500    0.3500
  band No.  band energies     occupation 
      1       6.2534      1.00000
      2       6.4333      1.00000
      3       7.3466      1.00000
      4       8.5631      1.00000
      5       9.2941      0.91474
      6      13.9407     -0.00000
      7      17.1573      0.00000
      8      20.6958      0.00000
      9      28.6909      0.00000
     10      31.5947      0.00000
     11      45.6904      0.00000
     12      45.7150      0.00000

 k-point   105 :       0.4500    0.4500    0.3500
  band No.  band energies     occupation 
      1       5.0147      1.00000
      2       7.3940      1.00000
      3       7.8051      1.00000
      4       7.8242      1.00000
      5       9.5586      0.02885
      6      10.1593     -0.00000
      7      17.1149      0.00000
      8      30.1842      0.00000
      9      31.4940      0.00000
     10      32.8943      0.00000
     11      39.8135      0.00000
     12      40.3600      0.00000

 k-point   106 :      -0.4500    0.4500    0.3500
  band No.  band energies     occupation 
      1       5.5692      1.00000
      2       6.9962      1.00000
      3       7.5893      1.00000
      4       8.0638      1.00000
      5       9.4715      0.25949
      6      11.7036     -0.00000
      7      16.4363      0.00000
      8      26.8705      0.00000
      9      28.4830      0.00000
     10      34.4999      0.00000
     11      39.1668      0.00000
     12      44.2352      0.00000

 k-point   107 :      -0.3500    0.4500    0.3500
  band No.  band energies     occupation 
      1       6.2199      1.00000
      2       6.4731      1.00000
      3       7.3104      1.00000
      4       8.4560      1.00000
      5       9.4658      0.28065
      6      13.9263     -0.00000
      7      16.1990      0.00000
      8      22.8735      0.00000
      9      26.0540      0.00000
     10      34.7775      0.00000
     11      40.9266      0.00000
     12      47.2858      0.00000

 k-point   108 :      -0.4500   -0.4500    0.3500
  band No.  band energies     occupation 
      1       5.7646      1.00000
      2       6.7874      1.00000
      3       7.6030      1.00000
      4       8.1687      1.00000
      5       9.5346      0.07372
      6      12.5808     -0.00000
      7      15.8548      0.00000
      8      25.2341      0.00000
      9      29.5408      0.00000
     10      31.7543      0.00000
     11      43.0368      0.00000
     12      43.2292      0.00000

 k-point   109 :       0.4500    0.4500    0.4500
  band No.  band energies     occupation 
      1       4.9150      1.00000
      2       7.6349      1.00000
      3       7.6349      1.00000
      4       8.7170      1.00001
      5       9.5274      0.09011
      6       9.5274      0.09011
      7      16.0699      0.00000
      8      31.5707      0.00000
      9      34.2193      0.00000
     10      34.2193      0.00000
     11      37.2088      0.00000
     12      37.2088      0.00000

 k-point   110 :      -0.4500    0.4500    0.4500
  band No.  band energies     occupation 
      1       5.2106      1.00000
      2       7.4053      1.00000
      3       7.7617      1.00000
      4       8.1589      1.00000
      5       9.5160      0.11867
      6      10.8289     -0.00000
      7      15.6246      0.00000
      8      29.2953      0.00000
      9      32.5002      0.00000
     10      32.5640      0.00000
     11      39.1760      0.00000
     12      39.8281      0.00000


--------------------------------------------------------------------------------------------------------


 soft charge-density along one line, spin component           1
         0         1         2         3         4         5         6         7         8         9
 total charge-density along one line
 
 soft charge-density along one line, spin component           2
         0         1         2         3         4         5         6         7         8         9
 total charge-density along one line
 
 pseudopotential strength for first ion, spin component:           1
 -0.564   0.000   0.000   0.000  -0.000   0.000   0.000   0.000  -0.000   0.000  -1.242   0.000   0.000   0.000  -0.000   0.000
  0.000   0.000  -0.564   0.000   0.000   0.000   0.000   0.000  -0.000   0.000   0.000   0.000  -1.242   0.000   0.000   0.000
 -0.000   0.000   0.000   0.000  -0.461   0.000   0.000   0.000  -0.000   0.000  -0.000   0.000   0.000   0.000  -1.143   0.000
  0.000   0.000   0.000   0.000   0.000   0.000  -0.564   0.000   0.000   0.000   0.000   0.000   0.000   0.000   0.000   0.000
 -0.000   0.000  -0.000   0.000  -0.000   0.000   0.000   0.000  -0.461   0.000  -0.000   0.000  -0.000   0.000  -0.000   0.000
 -1.242   0.000   0.000   0.000  -0.000   0.000   0.000   0.000  -0.000   0.000  -1.849   0.000   0.000   0.000  -0.000   0.000
  0.000   0.000  -1.242   0.000   0.000   0.000   0.000   0.000  -0.000   0.000   0.000   0.000  -1.849   0.000   0.000   0.000
 -0.000   0.000   0.000   0.000  -1.143   0.000   0.000   0.000  -0.000   0.000  -0.000   0.000   0.000   0.000  -1.754   0.000
  0.000   0.000   0.000   0.000   0.000   0.000  -1.242   0.000   0.000   0.000   0.000   0.000   0.000   0.000   0.000   0.000
 -0.000   0.000  -0.000   0.000  -0.000   0.000   0.000   0.000  -1.143   0.000  -0.000   0.000  -0.000   0.000  -0.000   0.000
 -0.000   0.000  -0.000   0.000   0.000   0.000  -0.000   0.000  -0.000   0.000  -0.000   0.000  -0.000   0.000   0.000   0.000
 -0.000   0.000  -0.000   0.000   0.000   0.000  -0.000   0.000  -0.000   0.000  -0.000   0.000  -0.000   0.000   0.000   0.000
  0.000   0.000   0.000   0.000  -0.000   0.000   0.000   0.000  -0.000   0.000   0.000   0.000   0.000   0.000  -0.000   0.000
  0.000   0.000   0.000   0.000   0.000   0.000   0.000   0.000   0.000   0.000   0.000   0.000   0.000   0.000   0.000   0.000
  0.000   0.000   0.000   0.000  -0.000   0.000   0.000   0.000   0.000   0.000   0.000   0.000   0.000   0.000  -0.000   0.000
  0.000   0.000   0.000   0.000  -0.000   0.000   0.000   0.000  -0.000   0.000   0.000   0.000   0.000   0.000  -0.000   0.000
  0.000   0.000   0.000   0.000   0.000   0.000   0.000   0.000   0.000   0.000   0.000   0.000   0.000   0.000   0.000   0.000
  0.000   0.000   0.000   0.000  -0.000   0.000   0.000   0.000   0.000   0.000   0.000   0.000   0.000   0.000  -0.000   0.000
 pseudopotential strength for first ion, spin component:           2
  0.061   0.000   0.000   0.000  -0.000   0.000   0.000   0.000  -0.000   0.000  -0.646   0.000   0.000   0.000  -0.000   0.000
  0.000   0.000   0.061   0.000   0.000   0.000   0.000   0.000  -0.000   0.000   0.000   0.000  -0.646   0.000   0.000   0.000
 -0.000   0.000   0.000   0.000   0.036   0.000   0.000   0.000   0.000   0.000  -0.000   0.000   0.000   0.000  -0.670   0.000
  0.000   0.000   0.000   0.000   0.000   0.000   0.061   0.000   0.000   0.000   0.000   0.000   0.000   0.000   0.000   0.000
 -0.000   0.000  -0.000   0.000   0.000   0.000   0.000   0.000   0.036   0.000  -0.000   0.000  -0.000   0.000   0.000   0.000
 -0.646   0.000   0.000   0.000  -0.000   0.000   0.000   0.000  -0.000   0.000  -1.280   0.000   0.000   0.000  -0.000   0.000
  0.000   0.000  -0.646   0.000   0.000   0.000   0.000   0.000  -0.000   0.000   0.000   0.000  -1.280   0.000   0.000   0.000
 -0.000   0.000   0.000   0.000  -0.670   0.000   0.000   0.000   0.000   0.000  -0.000   0.000   0.000   0.000  -1.304   0.000
  0.000   0.000   0.000   0.000   0.000   0.000  -0.646   0.000   0.000   0.000   0.000   0.000   0.000   0.000   0.000   0.000
 -0.000   0.000  -0.000   0.000   0.000   0.000   0.000   0.000  -0.670   0.000  -0.000   0.000  -0.000   0.000   0.000   0.000
 -0.000   0.000  -0.000   0.000  -0.000   0.000  -0.000   0.000   0.000   0.000  -0.000   0.000  -0.000   0.000  -0.000   0.000
 -0.000   0.000  -0.000   0.000  -0.000   0.000  -0.000   0.000   0.000   0.000  -0.000   0.000  -0.000   0.000  -0.000   0.000
  0.000   0.000   0.000   0.000  -0.000   0.000   0.000   0.000  -0.000   0.000   0.000   0.000   0.000   0.000  -0.000   0.000
  0.000   0.000   0.000   0.000   0.000   0.000   0.000   0.000  -0.000   0.000   0.000   0.000   0.000   0.000   0.000   0.000
  0.000   0.000   0.000   0.000  -0.000   0.000   0.000   0.000   0.000   0.000   0.000   0.000   0.000   0.000  -0.000   0.000
  0.000   0.000   0.000   0.000  -0.000   0.000   0.000   0.000  -0.000   0.000   0.000   0.000   0.000   0.000  -0.000   0.000
  0.000   0.000   0.000   0.000   0.000   0.000   0.000   0.000  -0.000   0.000   0.000   0.000   0.000   0.000   0.000   0.000
  0.000   0.000   0.000   0.000  -0.000   0.000   0.000   0.000   0.000   0.000   0.000   0.000   0.000   0.000  -0.000   0.000
 total augmentation occupancy for first ion, spin component:           1
  2.786  -0.000  -0.000  -0.000   0.000  -1.272   0.000   0.000   0.000   0.000   0.000  -0.000   0.000   0.000   0.000   0.000
 -0.000   2.786   0.000  -0.000   0.000   0.000  -1.272  -0.000   0.000   0.000  -0.000   0.000   0.000   0.000   0.000   0.000
 -0.000  -0.000   3.555   0.000   0.000   0.000   0.000  -1.615  -0.000  -0.000  -0.000   0.000   0.000   0.000   0.000   0.000
 -0.000  -0.000  -0.000   2.786  -0.000   0.000   0.000  -0.000  -1.272  -0.000   0.000  -0.000   0.000   0.000   0.000   0.000
 -0.000   0.000  -0.000   0.000   3.555   0.000  -0.000  -0.000  -0.000  -1.615   0.000   0.000   0.000   0.000   0.000   0.000
 -1.272   0.000   0.000   0.000  -0.000   1.465   0.000  -0.000   0.000   0.000  -0.000   0.000   0.000   0.000   0.000   0.000
  0.000  -1.272   0.000   0.000  -0.000   0.000   1.465   0.000   0.000   0.000   0.000  -0.000   0.000   0.000   0.000   0.000
  0.000   0.000  -1.615  -0.000  -0.000  -0.000   0.000   1.502   0.000   0.000   0.000  -0.000   0.000   0.000   0.000   0.000
  0.000   0.000  -0.000  -1.272  -0.000   0.000   0.000   0.000   1.465  -0.000   0.000   0.000   0.000   0.000   0.000   0.000
  0.000   0.000   0.000  -0.000  -1.615   0.000   0.000   0.000  -0.000   1.502   0.000  -0.000   0.000   0.000   0.000   0.000
  0.000  -0.000  -0.000  -0.000   0.000  -0.000   0.000   0.000  -0.000   0.000   2.320  -0.325   0.000   0.000   0.000   0.000
 -0.000   0.000   0.000  -0.000   0.000   0.000  -0.000  -0.000   0.000  -0.000  -0.325   0.053   0.000   0.000   0.000   0.000
  0.000   0.000   0.000   0.000   0.000   0.000   0.000   0.000   0.000   0.000   0.000   0.000   0.304  -0.000  -0.000  -0.032
  0.000   0.000   0.000   0.000   0.000   0.000   0.000   0.000   0.000   0.000   0.000   0.000  -0.000   0.304   0.000   0.000
  0.000   0.000   0.000   0.000   0.000   0.000   0.000   0.000   0.000   0.000   0.000   0.000   0.000  -0.000   0.304   0.000
  0.000   0.000   0.000   0.000   0.000   0.000   0.000   0.000   0.000   0.000   0.000   0.000  -0.032   0.000  -0.000   0.004
  0.000   0.000   0.000   0.000   0.000   0.000   0.000   0.000   0.000   0.000   0.000   0.000   0.000  -0.032  -0.000  -0.000
  0.000   0.000   0.000   0.000   0.000   0.000   0.000   0.000   0.000   0.000   0.000   0.000  -0.000  -0.000  -0.032   0.000
 total augmentation occupancy for first ion, spin component:           2
  1.053  -0.000  -0.000  -0.000  -0.000  -0.528   0.000   0.000   0.000   0.000  -0.000  -0.000   0.000   0.000   0.000   0.000
 -0.000   1.053   0.000  -0.000  -0.000   0.000  -0.528  -0.000   0.000   0.000   0.000  -0.000   0.000   0.000   0.000   0.000
 -0.000   0.000   0.599  -0.000   0.000   0.000  -0.000  -0.298   0.000  -0.000   0.000  -0.000   0.000   0.000   0.000   0.000
 -0.000  -0.000  -0.000   1.053   0.000   0.000   0.000  -0.000  -0.528  -0.000  -0.000  -0.000   0.000   0.000   0.000   0.000
 -0.000  -0.000  -0.000   0.000   0.599  -0.000   0.000   0.000  -0.000  -0.298  -0.000  -0.000   0.000   0.000   0.000   0.000
 -0.528   0.000   0.000   0.000   0.000   0.180  -0.000  -0.000  -0.000  -0.000   0.000  -0.000   0.000   0.000   0.000   0.000
  0.000  -0.528  -0.000   0.000   0.000  -0.000   0.180  -0.000  -0.000   0.000  -0.000   0.000   0.000   0.000   0.000   0.000
  0.000  -0.000  -0.298   0.000   0.000  -0.000   0.000   0.086  -0.000  -0.000  -0.000   0.000   0.000   0.000   0.000   0.000
  0.000   0.000   0.000  -0.528  -0.000  -0.000  -0.000  -0.000   0.180   0.000   0.000  -0.000   0.000   0.000   0.000   0.000
  0.000   0.000   0.000  -0.000  -0.298  -0.000  -0.000  -0.000   0.000   0.086   0.000   0.000   0.000   0.000   0.000   0.000
  0.000   0.000   0.000   0.000  -0.000   0.000  -0.000  -0.000   0.000  -0.000  -0.133   0.043   0.000   0.000   0.000   0.000
  0.000  -0.000  -0.000  -0.000  -0.000  -0.000   0.000   0.000   0.000   0.000   0.043  -0.009   0.000   0.000   0.000   0.000
  0.000   0.000   0.000   0.000   0.000   0.000   0.000   0.000   0.000   0.000   0.000   0.000  -0.018   0.000  -0.000   0.003
  0.000   0.000   0.000   0.000   0.000   0.000   0.000   0.000   0.000   0.000   0.000   0.000   0.000  -0.018   0.000  -0.000
  0.000   0.000   0.000   0.000   0.000   0.000   0.000   0.000   0.000   0.000   0.000   0.000  -0.000   0.000  -0.018   0.000
  0.000   0.000   0.000   0.000   0.000   0.000   0.000   0.000   0.000   0.000   0.000   0.000   0.003  -0.000   0.000  -0.000
  0.000   0.000   0.000   0.000   0.000   0.000   0.000   0.000   0.000   0.000   0.000   0.000  -0.000   0.003  -0.000   0.000
  0.000   0.000   0.000   0.000   0.000   0.000   0.000   0.000   0.000   0.000   0.000   0.000  -0.000   0.000   0.003  -0.000


------------------------ aborting loop because EDIFF is reached ----------------------------------------


    CHARGE:  cpu time    0.0136: real time    0.0136
    FORLOC:  cpu time    0.0001: real time    0.0002
    FORNL :  cpu time    0.0155: real time    0.0156
    STRESS:  cpu time    0.0580: real time    0.0582
    FORCOR:  cpu time    0.0054: real time    0.0054
    FORHAR:  cpu time    0.0008: real time    0.0008
    MIXING:  cpu time    0.0004: real time    0.0003
    OFIELD:  cpu time    0.0000: real time    0.0000

  FORCE on cell =-STRESS in cart. coord.  units (eV):
  Direction    XX          YY          ZZ          XY          YZ          ZX
  --------------------------------------------------------------------------------------
  Alpha Z    46.96332    46.96332    46.96332
  Ewald    -313.02260  -313.02260  -313.02260     0.00000    -0.00000     0.00000
  Hartree    74.65419    74.65419    74.65419     0.00000     0.00000     0.00000
  E(xc)     -55.04415   -55.04415   -55.04415    -0.00001    -0.00001    -0.00001
  Local       0.16461     0.16461     0.16461     0.00021     0.00021     0.00021
  n-local    -7.27196    -6.70161    -9.34404     1.71725    -1.84050     0.05194
  augment   176.12140   176.12140   176.12140    -0.00021    -0.00021    -0.00021
  Kinetic    77.11732    77.21645    79.50179    -0.75696     0.67026     0.01744
  Fock        0.00000     0.00000     0.00000     0.00000     0.00000     0.00000
  -------------------------------------------------------------------------------------
  Total       0.00942     0.00942     0.00942     0.00000     0.00000    -0.00000
  in kB       1.39027     1.39027     1.39027     0.00000     0.00000    -0.00000
  external pressure =        1.39 kB  Pullay stress =        0.00 kB


 VOLUME and BASIS-vectors are now :
 -----------------------------------------------------------------------------
  energy-cutoff  :      336.91
  volume of cell :       10.86
      direct lattice vectors                 reciprocal lattice vectors
    -0.000000000  1.757621751  1.757621751    -0.284475314  0.284475314  0.284475314
     1.757621751  0.000000000  1.757621751     0.284475314 -0.284475314  0.284475314
     1.757621751  1.757621751 -0.000000000     0.284475314  0.284475314 -0.284475314

  length of vectors
     2.485652517  2.485652517  2.485652517     0.492725698  0.492725698  0.492725698


 FORCES acting on ions
    electron-ion (+dipol)            ewald-force                    non-local-force                 convergence-correction
 -----------------------------------------------------------------------------------------------
   -.342E-13 -.301E-13 -.336E-13   0.238E-15 -.123E-14 0.768E-15   -.129E-25 0.129E-25 -.129E-25   -.523E-13 -.280E-13 -.394E-13
 -----------------------------------------------------------------------------------------------
   -.342E-13 -.301E-13 -.336E-13   0.238E-15 -.123E-14 0.768E-15   -.129E-25 0.129E-25 -.129E-25   -.523E-13 -.280E-13 -.394E-13
 
 
 POSITION                                       TOTAL-FORCE (eV/Angst)
 -----------------------------------------------------------------------------------
     -0.00000     -0.00000     -0.00000        -0.000000     -0.000000     -0.000000
 -----------------------------------------------------------------------------------
    total drift:                               -0.000000     -0.000000     -0.000000


--------------------------------------------------------------------------------------------------------



  FREE ENERGIE OF THE ION-ELECTRON SYSTEM (eV)
  ---------------------------------------------------
  free  energy   TOTEN  =        -5.47662362 eV

  energy  without entropy=       -5.47481383  energy(sigma->0) =       -5.47602036
 
 d Force = 0.0000000E+00[ 0.000E+00, 0.000E+00]  d Energy = 0.3701338E-04-0.370E-04
 d Force = 0.0000000E+00[ 0.000E+00, 0.000E+00]  d Ewald  =-0.5852329E+00 0.585E+00


--------------------------------------------------------------------------------------------------------


    POTLOK:  cpu time    0.0094: real time    0.0095


--------------------------------------------------------------------------------------------------------




--------------------------------------------------------------------------------------------------------


  
 reached required accuracy - stopping structural energy minimisation
 writing wavefunctions
     LOOP+:  cpu time    1.6041: real time    1.8559
    4ORBIT:  cpu time    0.0000: real time    0.0000

 total amount of memory used by VASP MPI-rank0    36051. kBytes
=======================================================================

   base      :      30000. kBytes
   nonl-proj :       2663. kBytes
   fftplans  :        408. kBytes
   grid      :        964. kBytes
   one-center:         31. kBytes
   wavefun   :       1985. kBytes
 
  
  
 General timing and accounting informations for this job:
 ========================================================
  
                  Total CPU time used (sec):        5.357
                            User time (sec):        4.681
                          System time (sec):        0.677
                         Elapsed time (sec):        6.108
  
                   Maximum memory used (kb):       63400.
                   Average memory used (kb):           0.
  
                          Minor page faults:        46187
                          Major page faults:            0
                 Voluntary context switches:         4527
