<?xml version="1.0" encoding="ISO-8859-1"?>
<modeling>
 <generator>
  <i name="program" type="string">vasp </i>
  <i name="version" type="string">5.4.4.18Apr17-6-g9f103f2a35  </i>
  <i name="subversion" type="string">(build Jul 01 2019 03:25:34) complex            parallel </i>
  <i name="platform" type="string">LinuxIFC </i>
  <i name="date" type="string">2020 07 09 </i>
  <i name="time" type="string">19:21:22 </i>
 </generator>
 <incar>
  <i type="string" name="SYSTEM"> fcc Ni</i>
  <i type="string" name="PREC">high</i>
  <i type="int" name="ISPIN">     2</i>
  <i type="int" name="IBRION">     2</i>
  <i name="EDIFF">      0.00010000</i>
  <i type="int" name="NSW">    50</i>
  <i type="int" name="ISIF">     3</i>
  <v name="MAGMOM">      3.00000000</v>
  <v type="int" name="KPOINT_BSE">    -1     0     0     0</v>
 </incar>
 <structure name="primitive_cell" >
  <crystal>
   <varray name="basis" >
    <v>       0.00000000       1.76000000       1.76000000 </v>
    <v>       1.76000000       0.00000000       1.76000000 </v>
    <v>       1.76000000       1.76000000       0.00000000 </v>
   </varray>
   <i name="volume">     10.90355200 </i>
   <varray name="rec_basis" >
    <v>      -0.28409091       0.28409091       0.28409091 </v>
    <v>       0.28409091      -0.28409091       0.28409091 </v>
    <v>       0.28409091       0.28409091      -0.28409091 </v>
   </varray>
  </crystal>
  <varray name="positions" >
   <v>       0.00000000       0.00000000       0.00000000 </v>
  </varray>
 </structure>
 <varray name="primitive_index" >
  <v type="int" >        1 </v>
 </varray>
 <kpoints>
  <generation param="Monkhorst-Pack">
   <v type="int" name="divisions">      10       10       10 </v>
   <v name="usershift">      0.00000000       0.00000000       0.00000000 </v>
   <v name="genvec1">      0.10000000       0.00000000       0.00000000 </v>
   <v name="genvec2">      0.00000000       0.10000000       0.00000000 </v>
   <v name="genvec3">      0.00000000       0.00000000       0.10000000 </v>
   <v name="shift">      0.50000000       0.50000000       0.50000000 </v>
  </generation>
  <varray name="kpointlist" >
   <v>       0.05000000       0.05000000       0.05000000 </v>
   <v>       0.15000000       0.05000000       0.05000000 </v>
   <v>       0.25000000       0.05000000       0.05000000 </v>
   <v>       0.35000000       0.05000000       0.05000000 </v>
   <v>       0.45000000       0.05000000       0.05000000 </v>
   <v>      -0.45000000       0.05000000       0.05000000 </v>
   <v>      -0.35000000       0.05000000       0.05000000 </v>
   <v>      -0.25000000       0.05000000       0.05000000 </v>
   <v>      -0.15000000       0.05000000       0.05000000 </v>
   <v>      -0.05000000       0.05000000       0.05000000 </v>
   <v>       0.15000000       0.15000000       0.05000000 </v>
   <v>       0.25000000       0.15000000       0.05000000 </v>
   <v>       0.35000000       0.15000000       0.05000000 </v>
   <v>       0.45000000       0.15000000       0.05000000 </v>
   <v>      -0.45000000       0.15000000       0.05000000 </v>
   <v>      -0.35000000       0.15000000       0.05000000 </v>
   <v>      -0.25000000       0.15000000       0.05000000 </v>
   <v>      -0.15000000       0.15000000       0.05000000 </v>
   <v>      -0.05000000       0.15000000       0.05000000 </v>
   <v>       0.25000000       0.25000000       0.05000000 </v>
   <v>       0.35000000       0.25000000       0.05000000 </v>
   <v>       0.45000000       0.25000000       0.05000000 </v>
   <v>      -0.45000000       0.25000000       0.05000000 </v>
   <v>      -0.35000000       0.25000000       0.05000000 </v>
   <v>      -0.25000000       0.25000000       0.05000000 </v>
   <v>      -0.15000000       0.25000000       0.05000000 </v>
   <v>      -0.05000000       0.25000000       0.05000000 </v>
   <v>       0.35000000       0.35000000       0.05000000 </v>
   <v>       0.45000000       0.35000000       0.05000000 </v>
   <v>      -0.45000000       0.35000000       0.05000000 </v>
   <v>      -0.35000000       0.35000000       0.05000000 </v>
   <v>      -0.25000000       0.35000000       0.05000000 </v>
   <v>      -0.15000000       0.35000000       0.05000000 </v>
   <v>      -0.05000000       0.35000000       0.05000000 </v>
   <v>       0.45000000       0.45000000       0.05000000 </v>
   <v>      -0.45000000       0.45000000       0.05000000 </v>
   <v>      -0.35000000       0.45000000       0.05000000 </v>
   <v>      -0.25000000       0.45000000       0.05000000 </v>
   <v>      -0.15000000       0.45000000       0.05000000 </v>
   <v>      -0.05000000       0.45000000       0.05000000 </v>
   <v>      -0.45000000      -0.45000000       0.05000000 </v>
   <v>      -0.35000000      -0.45000000       0.05000000 </v>
   <v>      -0.25000000      -0.45000000       0.05000000 </v>
   <v>      -0.15000000      -0.45000000       0.05000000 </v>
   <v>      -0.35000000      -0.35000000       0.05000000 </v>
   <v>      -0.25000000      -0.35000000       0.05000000 </v>
   <v>      -0.15000000      -0.35000000       0.05000000 </v>
   <v>      -0.25000000      -0.25000000       0.05000000 </v>
   <v>      -0.15000000      -0.25000000       0.05000000 </v>
   <v>      -0.15000000      -0.15000000       0.05000000 </v>
   <v>       0.15000000       0.15000000       0.15000000 </v>
   <v>       0.25000000       0.15000000       0.15000000 </v>
   <v>       0.35000000       0.15000000       0.15000000 </v>
   <v>       0.45000000       0.15000000       0.15000000 </v>
   <v>      -0.45000000       0.15000000       0.15000000 </v>
   <v>      -0.35000000       0.15000000       0.15000000 </v>
   <v>      -0.25000000       0.15000000       0.15000000 </v>
   <v>      -0.15000000       0.15000000       0.15000000 </v>
   <v>       0.25000000       0.25000000       0.15000000 </v>
   <v>       0.35000000       0.25000000       0.15000000 </v>
   <v>       0.45000000       0.25000000       0.15000000 </v>
   <v>      -0.45000000       0.25000000       0.15000000 </v>
   <v>      -0.35000000       0.25000000       0.15000000 </v>
   <v>      -0.25000000       0.25000000       0.15000000 </v>
   <v>      -0.15000000       0.25000000       0.15000000 </v>
   <v>       0.35000000       0.35000000       0.15000000 </v>
   <v>       0.45000000       0.35000000       0.15000000 </v>
   <v>      -0.45000000       0.35000000       0.15000000 </v>
   <v>      -0.35000000       0.35000000       0.15000000 </v>
   <v>      -0.25000000       0.35000000       0.15000000 </v>
   <v>      -0.15000000       0.35000000       0.15000000 </v>
   <v>       0.45000000       0.45000000       0.15000000 </v>
   <v>      -0.45000000       0.45000000       0.15000000 </v>
   <v>      -0.35000000       0.45000000       0.15000000 </v>
   <v>      -0.25000000       0.45000000       0.15000000 </v>
   <v>      -0.15000000       0.45000000       0.15000000 </v>
   <v>      -0.45000000      -0.45000000       0.15000000 </v>
   <v>      -0.35000000      -0.45000000       0.15000000 </v>
   <v>      -0.25000000      -0.45000000       0.15000000 </v>
   <v>      -0.35000000      -0.35000000       0.15000000 </v>
   <v>      -0.25000000      -0.35000000       0.15000000 </v>
   <v>      -0.25000000      -0.25000000       0.15000000 </v>
   <v>       0.25000000       0.25000000       0.25000000 </v>
   <v>       0.35000000       0.25000000       0.25000000 </v>
   <v>       0.45000000       0.25000000       0.25000000 </v>
   <v>      -0.45000000       0.25000000       0.25000000 </v>
   <v>      -0.35000000       0.25000000       0.25000000 </v>
   <v>      -0.25000000       0.25000000       0.25000000 </v>
   <v>       0.35000000       0.35000000       0.25000000 </v>
   <v>       0.45000000       0.35000000       0.25000000 </v>
   <v>      -0.45000000       0.35000000       0.25000000 </v>
   <v>      -0.35000000       0.35000000       0.25000000 </v>
   <v>      -0.25000000       0.35000000       0.25000000 </v>
   <v>       0.45000000       0.45000000       0.25000000 </v>
   <v>      -0.45000000       0.45000000       0.25000000 </v>
   <v>      -0.35000000       0.45000000       0.25000000 </v>
   <v>      -0.25000000       0.45000000       0.25000000 </v>
   <v>      -0.45000000      -0.45000000       0.25000000 </v>
   <v>      -0.35000000      -0.45000000       0.25000000 </v>
   <v>      -0.35000000      -0.35000000       0.25000000 </v>
   <v>       0.35000000       0.35000000       0.35000000 </v>
   <v>       0.45000000       0.35000000       0.35000000 </v>
   <v>      -0.45000000       0.35000000       0.35000000 </v>
   <v>      -0.35000000       0.35000000       0.35000000 </v>
   <v>       0.45000000       0.45000000       0.35000000 </v>
   <v>      -0.45000000       0.45000000       0.35000000 </v>
   <v>      -0.35000000       0.45000000       0.35000000 </v>
   <v>      -0.45000000      -0.45000000       0.35000000 </v>
   <v>       0.45000000       0.45000000       0.45000000 </v>
   <v>      -0.45000000       0.45000000       0.45000000 </v>
  </varray>
  <varray name="weights" >
   <v>       0.00200000 </v>
   <v>       0.00600000 </v>
   <v>       0.00600000 </v>
   <v>       0.00600000 </v>
   <v>       0.00600000 </v>
   <v>       0.00600000 </v>
   <v>       0.00600000 </v>
   <v>       0.00600000 </v>
   <v>       0.00600000 </v>
   <v>       0.00600000 </v>
   <v>       0.00600000 </v>
   <v>       0.01200000 </v>
   <v>       0.01200000 </v>
   <v>       0.01200000 </v>
   <v>       0.01200000 </v>
   <v>       0.01200000 </v>
   <v>       0.01200000 </v>
   <v>       0.01200000 </v>
   <v>       0.01200000 </v>
   <v>       0.00600000 </v>
   <v>       0.01200000 </v>
   <v>       0.01200000 </v>
   <v>       0.01200000 </v>
   <v>       0.01200000 </v>
   <v>       0.01200000 </v>
   <v>       0.01200000 </v>
   <v>       0.01200000 </v>
   <v>       0.00600000 </v>
   <v>       0.01200000 </v>
   <v>       0.01200000 </v>
   <v>       0.01200000 </v>
   <v>       0.01200000 </v>
   <v>       0.01200000 </v>
   <v>       0.01200000 </v>
   <v>       0.00600000 </v>
   <v>       0.01200000 </v>
   <v>       0.01200000 </v>
   <v>       0.01200000 </v>
   <v>       0.01200000 </v>
   <v>       0.01200000 </v>
   <v>       0.00600000 </v>
   <v>       0.01200000 </v>
   <v>       0.01200000 </v>
   <v>       0.01200000 </v>
   <v>       0.00600000 </v>
   <v>       0.01200000 </v>
   <v>       0.01200000 </v>
   <v>       0.00600000 </v>
   <v>       0.01200000 </v>
   <v>       0.00600000 </v>
   <v>       0.00200000 </v>
   <v>       0.00600000 </v>
   <v>       0.00600000 </v>
   <v>       0.00600000 </v>
   <v>       0.00600000 </v>
   <v>       0.00600000 </v>
   <v>       0.00600000 </v>
   <v>       0.00600000 </v>
   <v>       0.00600000 </v>
   <v>       0.01200000 </v>
   <v>       0.01200000 </v>
   <v>       0.01200000 </v>
   <v>       0.01200000 </v>
   <v>       0.01200000 </v>
   <v>       0.01200000 </v>
   <v>       0.00600000 </v>
   <v>       0.01200000 </v>
   <v>       0.01200000 </v>
   <v>       0.01200000 </v>
   <v>       0.01200000 </v>
   <v>       0.01200000 </v>
   <v>       0.00600000 </v>
   <v>       0.01200000 </v>
   <v>       0.01200000 </v>
   <v>       0.01200000 </v>
   <v>       0.01200000 </v>
   <v>       0.00600000 </v>
   <v>       0.01200000 </v>
   <v>       0.01200000 </v>
   <v>       0.00600000 </v>
   <v>       0.01200000 </v>
   <v>       0.00600000 </v>
   <v>       0.00200000 </v>
   <v>       0.00600000 </v>
   <v>       0.00600000 </v>
   <v>       0.00600000 </v>
   <v>       0.00600000 </v>
   <v>       0.00600000 </v>
   <v>       0.00600000 </v>
   <v>       0.01200000 </v>
   <v>       0.01200000 </v>
   <v>       0.01200000 </v>
   <v>       0.01200000 </v>
   <v>       0.00600000 </v>
   <v>       0.01200000 </v>
   <v>       0.01200000 </v>
   <v>       0.01200000 </v>
   <v>       0.00600000 </v>
   <v>       0.01200000 </v>
   <v>       0.00600000 </v>
   <v>       0.00200000 </v>
   <v>       0.00600000 </v>
   <v>       0.00600000 </v>
   <v>       0.00600000 </v>
   <v>       0.00600000 </v>
   <v>       0.01200000 </v>
   <v>       0.01200000 </v>
   <v>       0.00600000 </v>
   <v>       0.00200000 </v>
   <v>       0.00600000 </v>
  </varray>
 </kpoints>
 <parameters>
  <separator name="general" >
   <i type="string" name="SYSTEM">fcc Ni</i>
   <i type="logical" name="LCOMPAT"> F  </i>
  </separator>
  <separator name="electronic" >
   <i type="string" name="PREC">high</i>
   <i name="ENMAX">    336.91500000</i>
   <i name="ENAUG">    544.56500000</i>
   <i name="EDIFF">      0.00010000</i>
   <i type="int" name="IALGO">    38</i>
   <i type="int" name="IWAVPR">    11</i>
   <i type="int" name="NBANDS">    12</i>
   <i name="NELECT">     10.00000000</i>
   <i type="int" name="TURBO">     0</i>
   <i type="int" name="IRESTART">     0</i>
   <i type="int" name="NREBOOT">     0</i>
   <i type="int" name="NMIN">     0</i>
   <i name="EREF">      0.00000000</i>
   <separator name="electronic smearing" >
    <i type="int" name="ISMEAR">     1</i>
    <i name="SIGMA">      0.20000000</i>
    <i name="KSPACING">      0.50000000</i>
    <i type="logical" name="KGAMMA"> T  </i>
   </separator>
   <separator name="electronic projectors" >
    <i type="logical" name="LREAL"> F  </i>
    <v name="ROPT">      0.00000000</v>
    <i type="int" name="LMAXPAW">  -100</i>
    <i type="int" name="LMAXMIX">     2</i>
    <i type="logical" name="NLSPLINE"> F  </i>
   </separator>
   <separator name="electronic startup" >
    <i type="int" name="ISTART">     1</i>
    <i type="int" name="ICHARG">     0</i>
    <i type="int" name="INIWAV">     1</i>
   </separator>
   <separator name="electronic spin" >
    <i type="int" name="ISPIN">     2</i>
    <i type="logical" name="LNONCOLLINEAR"> F  </i>
    <v name="MAGMOM">      3.00000000</v>
    <i name="NUPDOWN">     -1.00000000</i>
    <i type="logical" name="LSORBIT"> F  </i>
    <v name="SAXIS">      0.00000000      0.00000000      1.00000000</v>
    <i type="logical" name="LSPIRAL"> F  </i>
    <v name="QSPIRAL">      0.00000000      0.00000000      0.00000000</v>
    <i type="logical" name="LZEROZ"> F  </i>
   </separator>
   <separator name="electronic exchange-correlation" >
    <i type="logical" name="LASPH"> F  </i>
    <i type="logical" name="LMETAGGA"> F  </i>
   </separator>
   <separator name="electronic convergence" >
    <i type="int" name="NELM">    60</i>
    <i type="int" name="NELMDL">     0</i>
    <i type="int" name="NELMIN">     2</i>
    <i name="ENINI">    336.91500000</i>
    <separator name="electronic convergence detail" >
     <i type="logical" name="LDIAG"> T  </i>
     <i type="logical" name="LSUBROT"> F  </i>
     <i name="WEIMIN">      0.00100000</i>
     <i name="EBREAK">      0.00000208</i>
     <i name="DEPER">      0.30000000</i>
     <i type="int" name="NRMM">     4</i>
     <i name="TIME">      0.40000000</i>
    </separator>
   </separator>
   <separator name="electronic mixer" >
    <i name="AMIX">      0.40000000</i>
    <i name="BMIX">      1.00000000</i>
    <i name="AMIN">      0.10000000</i>
    <i name="AMIX_MAG">      1.60000000</i>
    <i name="BMIX_MAG">      1.00000000</i>
    <separator name="electronic mixer details" >
     <i type="int" name="IMIX">     4</i>
     <i type="logical" name="MIXFIRST"> F  </i>
     <i type="int" name="MAXMIX">   -45</i>
     <i name="WC">    100.00000000</i>
     <i type="int" name="INIMIX">     1</i>
     <i type="int" name="MIXPRE">     1</i>
     <i type="int" name="MREMOVE">     5</i>
    </separator>
   </separator>
   <separator name="electronic dipolcorrection" >
    <i type="logical" name="LDIPOL"> F  </i>
    <i type="logical" name="LMONO"> F  </i>
    <i type="int" name="IDIPOL">     0</i>
    <i name="EPSILON">      1.00000000</i>
    <v name="DIPOL">   -100.00000000   -100.00000000   -100.00000000</v>
    <i name="EFIELD">      0.00000000</i>
   </separator>
  </separator>
  <separator name="grids" >
   <i type="int" name="NGX">    16</i>
   <i type="int" name="NGY">    16</i>
   <i type="int" name="NGZ">    16</i>
   <i type="int" name="NGXF">    28</i>
   <i type="int" name="NGYF">    28</i>
   <i type="int" name="NGZF">    28</i>
   <i type="logical" name="ADDGRID"> F  </i>
  </separator>
  <separator name="ionic" >
   <i type="int" name="NSW">    50</i>
   <i type="int" name="IBRION">     2</i>
   <i type="int" name="MDALGO">     0</i>
   <i type="int" name="ISIF">     3</i>
   <i name="PSTRESS">      0.00000000</i>
   <i name="EDIFFG">      0.00100000</i>
   <i type="int" name="NFREE">     1</i>
   <i name="POTIM">      0.50000000</i>
   <i name="SMASS">     -3.00000000</i>
   <i name="SCALEE">      1.00000000</i>
  </separator>
  <separator name="ionic md" >
   <i name="TEBEG">      0.00010000</i>
   <i name="TEEND">      0.00010000</i>
   <i type="int" name="NBLOCK">     1</i>
   <i type="int" name="KBLOCK">    50</i>
   <i type="int" name="NPACO">   256</i>
   <i name="APACO">     16.00000000</i>
  </separator>
  <separator name="symmetry" >
   <i type="int" name="ISYM">     2</i>
   <i name="SYMPREC">      0.00001000</i>
  </separator>
  <separator name="dos" >
   <i type="int" name="LORBIT">     0</i>
   <v name="RWIGS">     -1.00000000</v>
   <i type="int" name="NEDOS">   301</i>
   <i name="EMIN">     10.00000000</i>
   <i name="EMAX">    -10.00000000</i>
   <i name="EFERMI">      0.00000000</i>
  </separator>
  <separator name="writing" >
   <i type="int" name="NWRITE">     2</i>
   <i type="logical" name="LWAVE"> T  </i>
   <i type="logical" name="LDOWNSAMPLE"> F  </i>
   <i type="logical" name="LCHARG"> T  </i>
   <i type="logical" name="LPARD"> F  </i>
   <i type="logical" name="LVTOT"> F  </i>
   <i type="logical" name="LVHAR"> F  </i>
   <i type="logical" name="LELF"> F  </i>
   <i type="logical" name="LOPTICS"> F  </i>
   <v name="STM">      0.00000000      0.00000000      0.00000000      0.00000000      0.00000000      0.00000000      0.00000000</v>
  </separator>
  <separator name="performance" >
   <i type="int" name="NPAR">     4</i>
   <i type="int" name="NSIM">     4</i>
   <i type="int" name="NBLK">    -1</i>
   <i type="logical" name="LPLANE"> T  </i>
   <i type="logical" name="LSCALAPACK"> T  </i>
   <i type="logical" name="LSCAAWARE"> F  </i>
   <i type="logical" name="LSCALU"> F  </i>
   <i type="logical" name="LASYNC"> F  </i>
   <i type="logical" name="LORBITALREAL"> F  </i>
  </separator>
  <separator name="miscellaneous" >
   <i type="int" name="IDIOT">     3</i>
   <i type="int" name="ISPECIAL">     0</i>
   <i type="logical" name="LMUSIC"> F  </i>
   <v name="POMASS">     58.69000000</v>
   <v name="DARWINR">      0.00000000</v>
   <v name="DARWINV">      1.00000000</v>
   <i type="logical" name="LCORR"> T  </i>
  </separator>
  <i type="logical" name="GGA_COMPAT"> T  </i>
  <i type="logical" name="LBERRY"> F  </i>
  <i type="int" name="ICORELEVEL">     0</i>
  <i type="logical" name="LDAU"> F  </i>
  <i type="int" name="I_CONSTRAINED_M">     0</i>
  <separator name="electronic exchange-correlation" >
   <i type="string" name="GGA">--</i>
   <i type="int" name="VOSKOWN">     0</i>
   <i type="logical" name="LHFCALC"> F  </i>
   <i type="string" name="PRECFOCK"></i>
   <i type="logical" name="LSYMGRAD"> F  </i>
   <i type="logical" name="LHFONE"> F  </i>
   <i type="logical" name="LRHFCALC"> F  </i>
   <i type="logical" name="LTHOMAS"> F  </i>
   <i type="logical" name="LMODELHF"> F  </i>
   <i name="ENCUT4O">     -1.00000000</i>
   <i type="int" name="EXXOEP">     0</i>
   <i type="int" name="FOURORBIT">     0</i>
   <i name="AEXX">      0.00000000</i>
   <i name="HFALPHA">      0.00000000</i>
   <i name="MCALPHA">      0.00000000</i>
   <i name="ALDAX">      1.00000000</i>
   <i name="AGGAX">      1.00000000</i>
   <i name="ALDAC">      1.00000000</i>
   <i name="AGGAC">      1.00000000</i>
   <i type="int" name="NKREDX">     1</i>
   <i type="int" name="NKREDY">     1</i>
   <i type="int" name="NKREDZ">     1</i>
   <i type="logical" name="SHIFTRED"> F  </i>
   <i type="logical" name="ODDONLY"> F  </i>
   <i type="logical" name="EVENONLY"> F  </i>
   <i type="int" name="LMAXFOCK">     0</i>
   <i type="int" name="NMAXFOCKAE">     0</i>
   <i type="logical" name="LFOCKAEDFT"> F  </i>
   <i name="HFSCREEN">      0.00000000</i>
   <i name="HFSCREENC">      0.00000000</i>
   <i type="int" name="NBANDSGWLOW">     0</i>
  </separator>
  <separator name="vdW DFT" >
   <i type="logical" name="LUSE_VDW"> F  </i>
   <i name="Zab_VDW">     -0.84910000</i>
   <i name="PARAM1">      0.12340000</i>
   <i name="PARAM2">      1.00000000</i>
   <i name="PARAM3">      0.00000000</i>
  </separator>
  <separator name="model GW" >
   <i type="int" name="MODEL_GW">     0</i>
   <i name="MODEL_EPS0">      6.54213120</i>
   <i name="MODEL_ALPHA">      1.00000000</i>
  </separator>
  <separator name="linear response parameters" >
   <i type="logical" name="LEPSILON"> F  </i>
   <i type="logical" name="LRPA"> F  </i>
   <i type="logical" name="LNABLA"> F  </i>
   <i type="logical" name="LVEL"> F  </i>
   <i type="int" name="KINTER">     0</i>
   <i name="CSHIFT">      0.10000000</i>
   <i name="OMEGAMAX">     -1.00000000</i>
   <i name="DEG_THRESHOLD">      0.00200000</i>
   <i name="RTIME">     -0.10000000</i>
   <i name="WPLASMAI">      0.00000000</i>
   <v name="DFIELD">      0.00000000      0.00000000      0.00000000</v>
   <v name="WPLASMA">      0.00000000      0.00000000      0.00000000      0.00000000      0.00000000      0.00000000      0.00000000      0.00000000      0.00000000</v>
  </separator>
  <separator name="orbital magnetization" >
   <i type="logical" name="NUCIND"> F  </i>
   <v name="MAGPOS">      0.00000000      0.00000000      0.00000000</v>
   <i type="logical" name="LNICSALL"> T  </i>
   <i type="logical" name="ORBITALMAG"> F  </i>
   <i type="logical" name="LMAGBLOCH"> F  </i>
   <i type="logical" name="LCHIMAG"> F  </i>
   <i type="logical" name="LGAUGE"> T  </i>
   <i type="int" name="MAGATOM">     0</i>
   <v name="MAGDIPOL">      0.00000000      0.00000000      0.00000000</v>
   <v name="AVECCONST">      0.00000000      0.00000000      0.00000000</v>
  </separator>
  <separator name="response functions" >
   <i type="logical" name="LADDER"> F  </i>
   <i type="logical" name="LRPAFORCE"> F  </i>
   <i type="logical" name="LFXC"> F  </i>
   <i type="logical" name="LHARTREE"> T  </i>
   <i type="int" name="IBSE">     0</i>
   <v type="int" name="KPOINT">    -1     0     0     0</v>
   <i type="logical" name="LTCTE"> F  </i>
   <i type="logical" name="LTETE"> F  </i>
   <i type="logical" name="LTRIPLET"> F  </i>
   <i type="logical" name="LFXCEPS"> F  </i>
   <i type="logical" name="LFXHEG"> F  </i>
   <i type="int" name="NATURALO">     2</i>
   <i type="logical" name="L2ORDER"> F  </i>
   <i type="logical" name="LMP2LT"> F  </i>
   <i type="logical" name="LUSEW"> F  </i>
   <i name="ENCUTGW">     -2.00000000</i>
   <i name="ENCUTGWSOFT">     -2.00000000</i>
   <i name="ENCUTLF">     -1.00000000</i>
   <i type="int" name="LMAXMP2">    -1</i>
   <i name="SCISSOR">      0.00000000</i>
   <i type="int" name="NOMEGA">     0</i>
   <i type="int" name="NOMEGAR">     0</i>
   <i type="int" name="NBANDSGW">    -1</i>
   <i type="int" name="NBANDSO">    -1</i>
   <i type="int" name="NBANDSV">    -1</i>
   <i type="int" name="NELM">     1</i>
   <i type="int" name="NELMHF">     1</i>
   <i type="int" name="DIM">     3</i>
   <i type="int" name="ANTIRES">     0</i>
   <i name="OMEGAMAX">    -30.00000000</i>
   <i name="OMEGAMIN">    -30.00000000</i>
   <i name="OMEGATL">   -200.00000000</i>
   <i type="int" name="OMEGAGRID">   140</i>
   <i name="CSHIFT">     -0.10000000</i>
   <i type="logical" name="SELFENERGY"> F  </i>
   <i type="logical" name="LSPECTRAL"> F  </i>
   <i type="logical" name="LSPECTRALGW"> F  </i>
   <i type="logical" name="LSINGLES"> F  </i>
   <i type="logical" name="LFERMIGW"> F  </i>
   <i type="logical" name="ODDONLYGW"> F  </i>
   <i type="logical" name="EVENONLYGW"> F  </i>
   <i type="int" name="NKREDLFX">     1</i>
   <i type="int" name="NKREDLFY">     1</i>
   <i type="int" name="NKREDLFZ">     1</i>
   <i type="int" name="MAXMEM">  2800</i>
   <i type="int" name="TELESCOPE">     0</i>
   <i type="int" name="TAUPAR">     1</i>
   <i type="int" name="OMEGAPAR">    -1</i>
   <i name="LAMBDA">      1.00000000</i>
  </separator>
  <separator name="External order field" >
   <i name="OFIELD_KAPPA">      0.00000000</i>
   <v name="OFIELD_K">      0.00000000      0.00000000      0.00000000</v>
   <i name="OFIELD_Q6_NEAR">      0.00000000</i>
   <i name="OFIELD_Q6_FAR">      0.00000000</i>
   <i name="OFIELD_A">      0.00000000</i>
  </separator>
 </parameters>
 <atominfo>
  <atoms>       1 </atoms>
  <types>       1 </types>
  <array name="atoms" >
   <dimension dim="1">ion</dimension>
   <field type="string">element</field>
   <field type="int">atomtype</field>
   <set>
    <rc><c>Ni</c><c>   1</c></rc>
   </set>
  </array>
  <array name="atomtypes" >
   <dimension dim="1">type</dimension>
   <field type="int">atomspertype</field>
   <field type="string">element</field>
   <field>mass</field>
   <field>valence</field>
   <field type="string">pseudopotential</field>
   <set>
    <rc><c>   1</c><c>Ni</c><c>     58.69000000</c><c>     10.00000000</c><c>  PAW_PBE Ni 02Aug2007                  </c></rc>
   </set>
  </array>
 </atominfo>
 <structure name="initialpos" >
  <crystal>
   <varray name="basis" >
    <v>       0.00000000       1.76000000       1.76000000 </v>
    <v>       1.76000000       0.00000000       1.76000000 </v>
    <v>       1.76000000       1.76000000       0.00000000 </v>
   </varray>
   <i name="volume">     10.90355200 </i>
   <varray name="rec_basis" >
    <v>      -0.28409091       0.28409091       0.28409091 </v>
    <v>       0.28409091      -0.28409091       0.28409091 </v>
    <v>       0.28409091       0.28409091      -0.28409091 </v>
   </varray>
  </crystal>
  <varray name="positions" >
   <v>       0.00000000       0.00000000       0.00000000 </v>
  </varray>
 </structure>
 <calculation>
  <scstep>
   <time name="dav">    0.35    0.36</time>
   <time name="total">    0.38    0.39</time>
   <energy>
    <i name="alphaZ">     46.77319923 </i>
    <i name="ewald">   -937.79883590 </i>
    <i name="hartreedc">   -224.76524819 </i>
    <i name="XCdc">     30.71966656 </i>
    <i name="pawpsdc">   1140.15108463 </i>
    <i name="pawaedc">  -1208.88807014 </i>
    <i name="eentropy">     -0.00179601 </i>
    <i name="bandstr">     70.68627548 </i>
    <i name="atom">   1077.64704370 </i>
    <i name="e_fr_energy">     -5.47668065 </i>
    <i name="e_wo_entrp">     -5.47488463 </i>
    <i name="e_0_energy">     -5.47608197 </i>
   </energy>
  </scstep>
  <scstep>
   <time name="dav">    0.37    0.38</time>
   <time name="total">    0.39    0.40</time>
   <energy>
    <i name="e_fr_energy">     -5.47659099 </i>
    <i name="e_wo_entrp">     -5.47472390 </i>
    <i name="e_0_energy">     -5.47596863 </i>
   </energy>
  </scstep>
  <scstep>
   <time name="dav">    0.26    0.26</time>
   <time name="total">    0.27    0.28</time>
   <energy>
    <i name="alphaZ">     46.77319923 </i>
    <i name="ewald">   -937.79883590 </i>
    <i name="hartreedc">   -224.58615961 </i>
    <i name="XCdc">     30.71094664 </i>
    <i name="pawpsdc">   1140.24697284 </i>
    <i name="pawaedc">  -1208.95002802 </i>
    <i name="eentropy">     -0.00183825 </i>
    <i name="bandstr">     70.48215981 </i>
    <i name="atom">   1077.64704370 </i>
    <i name="e_fr_energy">     -5.47653956 </i>
    <i name="e_wo_entrp">     -5.47470131 </i>
    <i name="e_0_energy">     -5.47592681 </i>
   </energy>
  </scstep>
  <structure>
   <crystal>
    <varray name="basis" >
     <v>       0.00000000       1.76000000       1.76000000 </v>
     <v>       1.76000000       0.00000000       1.76000000 </v>
     <v>       1.76000000       1.76000000       0.00000000 </v>
    </varray>
    <i name="volume">     10.90355200 </i>
    <varray name="rec_basis" >
     <v>      -0.28409091       0.28409091       0.28409091 </v>
     <v>       0.28409091      -0.28409091       0.28409091 </v>
     <v>       0.28409091       0.28409091      -0.28409091 </v>
    </varray>
   </crystal>
   <varray name="positions" >
    <v>       0.00000000       0.00000000       0.00000000 </v>
   </varray>
  </structure>
  <varray name="forces" >
   <v>      -0.00000000      -0.00000000      -0.00000000 </v>
  </varray>
  <varray name="stress" >
   <v>      -6.01027729       0.00000000      -0.00000000 </v>
   <v>      -0.00000000      -6.01027729       0.00000000 </v>
   <v>      -0.00000000       0.00000000      -6.01027729 </v>
  </varray>
  <energy>
   <i name="e_fr_energy">     -5.47653956 </i>
   <i name="e_wo_entrp">     -5.47592681 </i>
   <i name="e_0_energy">     -0.00183825 </i>
  </energy>
  <time name="totalsc">    1.25    1.30</time>
 </calculation>
 <calculation>
  <scstep>
   <time name="dav">    0.39    0.40</time>
   <time name="total">    0.42    0.42</time>
   <energy>
    <i name="alphaZ">     47.05118186 </i>
    <i name="ewald">   -939.65301050 </i>
    <i name="hartreedc">   -225.02125686 </i>
    <i name="XCdc">     30.80271302 </i>
    <i name="pawpsdc">   1140.26824628 </i>
    <i name="pawaedc">  -1208.97823162 </i>
    <i name="eentropy">     -0.00149989 </i>
    <i name="bandstr">     72.40166609 </i>
    <i name="atom">   1077.64704370 </i>
    <i name="e_fr_energy">     -5.48314792 </i>
    <i name="e_wo_entrp">     -5.48164803 </i>
    <i name="e_0_energy">     -5.48264796 </i>
   </energy>
  </scstep>
  <scstep>
   <time name="dav">    0.39    0.39</time>
   <time name="total">    0.41    0.42</time>
   <energy>
    <i name="e_fr_energy">     -5.47892021 </i>
    <i name="e_wo_entrp">     -5.47697596 </i>
    <i name="e_0_energy">     -5.47827213 </i>
   </energy>
  </scstep>
  <scstep>
   <time name="dav">    0.39    0.40</time>
   <time name="total">    0.41    0.42</time>
   <energy>
    <i name="e_fr_energy">     -5.47672855 </i>
    <i name="e_wo_entrp">     -5.47496071 </i>
    <i name="e_0_energy">     -5.47613927 </i>
   </energy>
  </scstep>
  <scstep>
   <time name="dav">    0.26    0.27</time>
   <time name="total">    0.29    0.30</time>
   <energy>
    <i name="e_fr_energy">     -5.47660645 </i>
    <i name="e_wo_entrp">     -5.47482325 </i>
    <i name="e_0_energy">     -5.47601205 </i>
   </energy>
  </scstep>
  <scstep>
   <time name="dav">    0.24    0.25</time>
   <time name="total">    0.25    0.26</time>
   <energy>
    <i name="alphaZ">     47.05118186 </i>
    <i name="ewald">   -939.65301050 </i>
    <i name="hartreedc">   -223.63977264 </i>
    <i name="XCdc">     30.72515090 </i>
    <i name="pawpsdc">   1143.11198155 </i>
    <i name="pawaedc">  -1211.87432069 </i>
    <i name="eentropy">     -0.00179193 </i>
    <i name="bandstr">     71.15695115 </i>
    <i name="atom">   1077.64704370 </i>
    <i name="e_fr_energy">     -5.47658661 </i>
    <i name="e_wo_entrp">     -5.47479468 </i>
    <i name="e_0_energy">     -5.47598930 </i>
   </energy>
  </scstep>
  <structure>
   <crystal>
    <varray name="basis" >
     <v>      -0.00000000       1.75652707       1.75652707 </v>
     <v>       1.75652707       0.00000000       1.75652707 </v>
     <v>       1.75652707       1.75652707      -0.00000000 </v>
    </varray>
    <i name="volume">     10.83913283 </i>
    <varray name="rec_basis" >
     <v>      -0.28465260       0.28465260       0.28465260 </v>
     <v>       0.28465260      -0.28465260       0.28465260 </v>
     <v>       0.28465260       0.28465260      -0.28465260 </v>
    </varray>
   </crystal>
   <varray name="positions" >
    <v>      -0.00000000      -0.00000000      -0.00000000 </v>
   </varray>
  </structure>
  <varray name="forces" >
   <v>      -0.00000000      -0.00000000      -0.00000000 </v>
  </varray>
  <varray name="stress" >
   <v>       2.78289740      -0.00000000       0.00000000 </v>
   <v>       0.00000000       2.78289740      -0.00000000 </v>
   <v>       0.00000000       0.00000000       2.78289740 </v>
  </varray>
  <energy>
   <i name="e_fr_energy">     -5.47658661 </i>
   <i name="e_wo_entrp">     -5.47598930 </i>
   <i name="e_0_energy">     -0.00179193 </i>
  </energy>
  <time name="totalsc">    1.95    1.98</time>
 </calculation>
 <calculation>
  <scstep>
   <time name="dav">    0.38    0.38</time>
   <time name="total">    0.40    0.41</time>
   <energy>
    <i name="alphaZ">     46.96332362 </i>
    <i name="ewald">   -939.06777762 </i>
    <i name="hartreedc">   -223.49920720 </i>
    <i name="XCdc">     30.69585486 </i>
    <i name="pawpsdc">   1143.35106816 </i>
    <i name="pawaedc">  -1212.11123274 </i>
    <i name="eentropy">     -0.00190114 </i>
    <i name="bandstr">     70.54554270 </i>
    <i name="atom">   1077.64704370 </i>
    <i name="e_fr_energy">     -5.47728566 </i>
    <i name="e_wo_entrp">     -5.47538451 </i>
    <i name="e_0_energy">     -5.47665194 </i>
   </energy>
  </scstep>
  <scstep>
   <time name="dav">    0.38    0.39</time>
   <time name="total">    0.41    0.41</time>
   <energy>
    <i name="e_fr_energy">     -5.47685534 </i>
    <i name="e_wo_entrp">     -5.47509846 </i>
    <i name="e_0_energy">     -5.47626971 </i>
   </energy>
  </scstep>
  <scstep>
   <time name="dav">    0.31    0.32</time>
   <time name="total">    0.34    0.34</time>
   <energy>
    <i name="e_fr_energy">     -5.47663708 </i>
    <i name="e_wo_entrp">     -5.47482206 </i>
    <i name="e_0_energy">     -5.47603207 </i>
   </energy>
  </scstep>
  <scstep>
   <time name="dav">    0.25    0.25</time>
   <time name="total">    0.26    0.26</time>
   <energy>
    <i name="alphaZ">     46.96332362 </i>
    <i name="ewald">   -939.06777762 </i>
    <i name="hartreedc">   -223.91838830 </i>
    <i name="XCdc">     30.71899389 </i>
    <i name="pawpsdc">   1142.94319409 </i>
    <i name="pawaedc">  -1211.69894503 </i>
    <i name="eentropy">     -0.00180979 </i>
    <i name="bandstr">     70.93774181 </i>
    <i name="atom">   1077.64704370 </i>
    <i name="e_fr_energy">     -5.47662362 </i>
    <i name="e_wo_entrp">     -5.47481383 </i>
    <i name="e_0_energy">     -5.47602036 </i>
   </energy>
  </scstep>
  <structure>
   <crystal>
    <varray name="basis" >
     <v>      -0.00000000       1.75762175       1.75762175 </v>
     <v>       1.75762175       0.00000000       1.75762175 </v>
     <v>       1.75762175       1.75762175      -0.00000000 </v>
    </varray>
    <i name="volume">     10.85941051 </i>
    <varray name="rec_basis" >
     <v>      -0.28447531       0.28447531       0.28447531 </v>
     <v>       0.28447531      -0.28447531       0.28447531 </v>
     <v>       0.28447531       0.28447531      -0.28447531 </v>
    </varray>
   </crystal>
   <varray name="positions" >
    <v>      -0.00000000      -0.00000000      -0.00000000 </v>
   </varray>
  </structure>
  <varray name="forces" >
   <v>      -0.00000000      -0.00000000      -0.00000000 </v>
  </varray>
  <varray name="stress" >
   <v>       1.39027239      -0.00000000      -0.00000000 </v>
   <v>       0.00000000       1.39027239      -0.00000000 </v>
   <v>       0.00000000       0.00000000       1.39027239 </v>
  </varray>
  <energy>
   <i name="e_fr_energy">     -5.47662362 </i>
   <i name="e_wo_entrp">     -5.47602036 </i>
   <i name="e_0_energy">     -0.00180979 </i>
  </energy>
  <time name="totalsc">    1.60    1.86</time>
  <eigenvalues>
   <array>
    <dimension dim="1">band</dimension>
    <dimension dim="2">kpoint</dimension>
    <dimension dim="3">spin</dimension>
    <field>eigene</field>
    <field>occ</field>
    <set>
     <set comment="spin 1">
      <set comment="kpoint 1">
       <r>    0.4796    1.0000 </r>
       <r>    6.9574    1.0000 </r>
       <r>    7.0051    1.0000 </r>
       <r>    7.0051    1.0000 </r>
       <r>    8.1360    1.0000 </r>
       <r>    8.1360    1.0000 </r>
       <r>   32.8565    0.0000 </r>
       <r>   35.6559    0.0000 </r>
       <r>   36.7759    0.0000 </r>
       <r>   36.7759    0.0000 </r>
       <r>   40.3366    0.0000 </r>
       <r>   40.3366    0.0000 </r>
      </set>
      <set comment="kpoint 2">
       <r>    0.9937    1.0000 </r>
       <r>    6.8242    1.0000 </r>
       <r>    7.1061    1.0000 </r>
       <r>    7.1214    1.0000 </r>
       <r>    8.0368    1.0000 </r>
       <r>    8.1650    1.0000 </r>
       <r>   30.6669    0.0000 </r>
       <r>   33.0128    0.0000 </r>
       <r>   35.6660    0.0000 </r>
       <r>   37.4727    0.0000 </r>
       <r>   40.1075    0.0000 </r>
       <r>   40.5506    0.0000 </r>
      </set>
      <set comment="kpoint 3">
       <r>    2.1913    1.0000 </r>
       <r>    6.6374    1.0000 </r>
       <r>    7.2143    1.0000 </r>
       <r>    7.2429    1.0000 </r>
       <r>    8.0223    1.0000 </r>
       <r>    8.2814    1.0000 </r>
       <r>   25.5986    0.0000 </r>
       <r>   31.9181    0.0000 </r>
       <r>   35.0765    0.0000 </r>
       <r>   36.8733    0.0000 </r>
       <r>   39.7615    0.0000 </r>
       <r>   40.0750    0.0000 </r>
      </set>
      <set comment="kpoint 4">
       <r>    3.6792    1.0000 </r>
       <r>    6.7930    1.0000 </r>
       <r>    7.1335    1.0000 </r>
       <r>    7.1810    1.0000 </r>
       <r>    8.3022    1.0000 </r>
       <r>    8.6134    1.0000 </r>
       <r>   20.7367    0.0000 </r>
       <r>   31.2882    0.0000 </r>
       <r>   33.9550    0.0000 </r>
       <r>   36.0835    0.0000 </r>
       <r>   37.8004    0.0000 </r>
       <r>   39.5957    0.0000 </r>
      </set>
      <set comment="kpoint 5">
       <r>    4.5018    1.0000 </r>
       <r>    7.0016    1.0000 </r>
       <r>    7.0628    1.0000 </r>
       <r>    7.8465    1.0000 </r>
       <r>    8.6521    1.0000 </r>
       <r>    9.1500    1.0345 </r>
       <r>   16.7027    0.0000 </r>
       <r>   31.0446    0.0000 </r>
       <r>   33.2034    0.0000 </r>
       <r>   34.5348    0.0000 </r>
       <r>   37.3185    0.0000 </r>
       <r>   38.7231    0.0000 </r>
      </set>
      <set comment="kpoint 6">
       <r>    4.6208    1.0000 </r>
       <r>    6.9534    1.0000 </r>
       <r>    7.0321    1.0000 </r>
       <r>    8.2677    1.0000 </r>
       <r>    8.8155    1.0001 </r>
       <r>    9.6769   -0.0341 </r>
       <r>   15.1814    0.0000 </r>
       <r>   31.1661    0.0000 </r>
       <r>   33.2708    0.0000 </r>
       <r>   33.3729    0.0000 </r>
       <r>   37.9332    0.0000 </r>
       <r>   38.0237    0.0000 </r>
      </set>
      <set comment="kpoint 7">
       <r>    4.3388    1.0000 </r>
       <r>    7.0278    1.0000 </r>
       <r>    7.1087    1.0000 </r>
       <r>    7.4128    1.0000 </r>
       <r>    8.7057    1.0000 </r>
       <r>    8.7945    1.0001 </r>
       <r>   17.9034    0.0000 </r>
       <r>   31.6414    0.0000 </r>
       <r>   32.7731    0.0000 </r>
       <r>   34.5403    0.0000 </r>
       <r>   37.8746    0.0000 </r>
       <r>   39.2497    0.0000 </r>
      </set>
      <set comment="kpoint 8">
       <r>    3.2024    1.0000 </r>
       <r>    6.6495    1.0000 </r>
       <r>    7.1737    1.0000 </r>
       <r>    7.2218    1.0000 </r>
       <r>    8.2539    1.0000 </r>
       <r>    8.4237    1.0000 </r>
       <r>   22.2932    0.0000 </r>
       <r>   32.4043    0.0000 </r>
       <r>   32.9845    0.0000 </r>
       <r>   36.3442    0.0000 </r>
       <r>   38.2421    0.0000 </r>
       <r>   41.1708    0.0000 </r>
      </set>
      <set comment="kpoint 9">
       <r>    1.7297    1.0000 </r>
       <r>    6.6805    1.0000 </r>
       <r>    7.2087    1.0000 </r>
       <r>    7.2173    1.0000 </r>
       <r>    8.0023    1.0000 </r>
       <r>    8.2127    1.0000 </r>
       <r>   27.3146    0.0000 </r>
       <r>   33.2130    0.0000 </r>
       <r>   33.7928    0.0000 </r>
       <r>   37.5252    0.0000 </r>
       <r>   38.9838    0.0000 </r>
       <r>   42.8016    0.0000 </r>
      </set>
      <set comment="kpoint 10">
       <r>    0.7388    1.0000 </r>
       <r>    6.8727    1.0000 </r>
       <r>    7.0704    1.0000 </r>
       <r>    7.0740    1.0000 </r>
       <r>    8.0539    1.0000 </r>
       <r>    8.1723    1.0000 </r>
       <r>   32.0483    0.0000 </r>
       <r>   34.3426    0.0000 </r>
       <r>   35.1178    0.0000 </r>
       <r>   36.7234    0.0000 </r>
       <r>   40.4217    0.0000 </r>
       <r>   41.9436    0.0000 </r>
      </set>
      <set comment="kpoint 11">
       <r>    1.2459    1.0000 </r>
       <r>    6.7030    1.0000 </r>
       <r>    7.2067    1.0000 </r>
       <r>    7.2097    1.0000 </r>
       <r>    7.9080    1.0000 </r>
       <r>    8.2415    1.0000 </r>
       <r>   30.8558    0.0000 </r>
       <r>   33.0452    0.0000 </r>
       <r>   33.2098    0.0000 </r>
       <r>   35.3887    0.0000 </r>
       <r>   40.8987    0.0000 </r>
       <r>   42.3454    0.0000 </r>
      </set>
      <set comment="kpoint 12">
       <r>    2.2043    1.0000 </r>
       <r>    6.4795    1.0000 </r>
       <r>    7.2885    1.0000 </r>
       <r>    7.4062    1.0000 </r>
       <r>    7.8502    1.0000 </r>
       <r>    8.3689    1.0000 </r>
       <r>   27.6733    0.0000 </r>
       <r>   29.8873    0.0000 </r>
       <r>   33.6630    0.0000 </r>
       <r>   35.0834    0.0000 </r>
       <r>   39.0328    0.0000 </r>
       <r>   42.4771    0.0000 </r>
      </set>
      <set comment="kpoint 13">
       <r>    3.6176    1.0000 </r>
       <r>    6.3754    1.0000 </r>
       <r>    7.0866    1.0000 </r>
       <r>    7.4376    1.0000 </r>
       <r>    8.2506    1.0000 </r>
       <r>    8.7191    1.0000 </r>
       <r>   22.6639    0.0000 </r>
       <r>   29.0804    0.0000 </r>
       <r>   32.1352    0.0000 </r>
       <r>   34.4750    0.0000 </r>
       <r>   40.6930    0.0000 </r>
       <r>   41.0693    0.0000 </r>
      </set>
      <set comment="kpoint 14">
       <r>    4.6840    1.0000 </r>
       <r>    6.7243    1.0000 </r>
       <r>    6.9473    1.0000 </r>
       <r>    7.3316    1.0000 </r>
       <r>    8.6894    1.0000 </r>
       <r>    9.6198   -0.0288 </r>
       <r>   18.2211    0.0000 </r>
       <r>   28.8409    0.0000 </r>
       <r>   30.4698    0.0000 </r>
       <r>   33.6168    0.0000 </r>
       <r>   39.9296    0.0000 </r>
       <r>   42.3067    0.0000 </r>
      </set>
      <set comment="kpoint 15">
       <r>    4.9334    1.0000 </r>
       <r>    6.7130    1.0000 </r>
       <r>    7.2442    1.0000 </r>
       <r>    7.4314    1.0000 </r>
       <r>    8.7863    1.0000 </r>
       <r>   11.0500   -0.0000 </r>
       <r>   15.3063    0.0000 </r>
       <r>   28.4447    0.0000 </r>
       <r>   30.0254    0.0000 </r>
       <r>   33.4631    0.0000 </r>
       <r>   39.2198    0.0000 </r>
       <r>   41.9312    0.0000 </r>
      </set>
      <set comment="kpoint 16">
       <r>    4.8399    1.0000 </r>
       <r>    6.7882    1.0000 </r>
       <r>    7.1428    1.0000 </r>
       <r>    7.2862    1.0000 </r>
       <r>    8.5960    1.0000 </r>
       <r>   10.2045   -0.0000 </r>
       <r>   16.9829    0.0000 </r>
       <r>   27.7681    0.0000 </r>
       <r>   31.1834    0.0000 </r>
       <r>   34.2040    0.0000 </r>
       <r>   38.8499    0.0000 </r>
       <r>   41.6344    0.0000 </r>
      </set>
      <set comment="kpoint 17">
       <r>    4.0837    1.0000 </r>
       <r>    6.5039    1.0000 </r>
       <r>    6.9997    1.0000 </r>
       <r>    7.3919    1.0000 </r>
       <r>    8.1813    1.0000 </r>
       <r>    9.1031    1.0257 </r>
       <r>   21.1105    0.0000 </r>
       <r>   27.6695    0.0000 </r>
       <r>   33.0149    0.0000 </r>
       <r>   35.7742    0.0000 </r>
       <r>   38.8429    0.0000 </r>
       <r>   40.9287    0.0000 </r>
      </set>
      <set comment="kpoint 18">
       <r>    2.6514    1.0000 </r>
       <r>    6.4729    1.0000 </r>
       <r>    7.2033    1.0000 </r>
       <r>    7.4349    1.0000 </r>
       <r>    7.8479    1.0000 </r>
       <r>    8.5258    1.0000 </r>
       <r>   25.9653    0.0000 </r>
       <r>   28.2370    0.0000 </r>
       <r>   35.2016    0.0000 </r>
       <r>   36.6576    0.0000 </r>
       <r>   39.7020    0.0000 </r>
       <r>   40.1871    0.0000 </r>
      </set>
      <set comment="kpoint 19">
       <r>    1.4917    1.0000 </r>
       <r>    6.6860    1.0000 </r>
       <r>    7.2094    1.0000 </r>
       <r>    7.2227    1.0000 </r>
       <r>    7.9312    1.0000 </r>
       <r>    8.2418    1.0000 </r>
       <r>   29.1417    0.0000 </r>
       <r>   31.4231    0.0000 </r>
       <r>   34.9846    0.0000 </r>
       <r>   37.0748    0.0000 </r>
       <r>   39.8105    0.0000 </r>
       <r>   41.8024    0.0000 </r>
      </set>
      <set comment="kpoint 20">
       <r>    2.8591    1.0000 </r>
       <r>    6.2079    1.0000 </r>
       <r>    7.4408    1.0000 </r>
       <r>    7.6562    1.0000 </r>
       <r>    7.8177    1.0000 </r>
       <r>    8.4501    1.0000 </r>
       <r>   28.1267    0.0000 </r>
       <r>   29.5882    0.0000 </r>
       <r>   30.6957    0.0000 </r>
       <r>   31.7503    0.0000 </r>
       <r>   36.1303    0.0000 </r>
       <r>   46.4519    0.0000 </r>
      </set>
      <set comment="kpoint 21">
       <r>    3.9555    1.0000 </r>
       <r>    5.9830    1.0000 </r>
       <r>    7.2168    1.0000 </r>
       <r>    7.9030    1.0000 </r>
       <r>    8.2860    1.0000 </r>
       <r>    8.7392    1.0000 </r>
       <r>   25.0558    0.0000 </r>
       <r>   27.0654    0.0000 </r>
       <r>   28.8830    0.0000 </r>
       <r>   32.3412    0.0000 </r>
       <r>   36.2701    0.0000 </r>
       <r>   45.9460    0.0000 </r>
      </set>
      <set comment="kpoint 22">
       <r>    4.9690    1.0000 </r>
       <r>    5.9789    1.0000 </r>
       <r>    6.9562    1.0000 </r>
       <r>    7.8408    1.0000 </r>
       <r>    8.7463    1.0000 </r>
       <r>    9.9622   -0.0003 </r>
       <r>   20.4104    0.0000 </r>
       <r>   26.2010    0.0000 </r>
       <r>   27.0797    0.0000 </r>
       <r>   32.4538    0.0000 </r>
       <r>   39.6471    0.0000 </r>
       <r>   44.3966    0.0000 </r>
      </set>
      <set comment="kpoint 23">
       <r>    5.3874    1.0000 </r>
       <r>    6.1656    1.0000 </r>
       <r>    6.9124    1.0000 </r>
       <r>    7.7157    1.0000 </r>
       <r>    8.8020    1.0001 </r>
       <r>   12.2150   -0.0000 </r>
       <r>   16.5106    0.0000 </r>
       <r>   24.5522    0.0000 </r>
       <r>   27.4283    0.0000 </r>
       <r>   32.5931    0.0000 </r>
       <r>   42.3412    0.0000 </r>
       <r>   44.9873    0.0000 </r>
      </set>
      <set comment="kpoint 24">
       <r>    5.4983    1.0000 </r>
       <r>    6.3152    1.0000 </r>
       <r>    6.7929    1.0000 </r>
       <r>    7.6574    1.0000 </r>
       <r>    8.5594    1.0000 </r>
       <r>   12.3498   -0.0000 </r>
       <r>   16.5234    0.0000 </r>
       <r>   23.3944    0.0000 </r>
       <r>   28.7538    0.0000 </r>
       <r>   33.3112    0.0000 </r>
       <r>   41.5308    0.0000 </r>
       <r>   45.3498    0.0000 </r>
      </set>
      <set comment="kpoint 25">
       <r>    5.1756    1.0000 </r>
       <r>    6.3448    1.0000 </r>
       <r>    6.6283    1.0000 </r>
       <r>    7.7183    1.0000 </r>
       <r>    8.1248    1.0000 </r>
       <r>   10.3927   -0.0000 </r>
       <r>   20.4092    0.0000 </r>
       <r>   23.0102    0.0000 </r>
       <r>   30.7144    0.0000 </r>
       <r>   34.8220    0.0000 </r>
       <r>   40.2434    0.0000 </r>
       <r>   44.1852    0.0000 </r>
      </set>
      <set comment="kpoint 26">
       <r>    4.0150    1.0000 </r>
       <r>    6.3302    1.0000 </r>
       <r>    6.9785    1.0000 </r>
       <r>    7.6236    1.0000 </r>
       <r>    7.8940    1.0000 </r>
       <r>    9.1822    1.0345 </r>
       <r>   23.0314    0.0000 </r>
       <r>   25.3874    0.0000 </r>
       <r>   33.0586    0.0000 </r>
       <r>   36.7620    0.0000 </r>
       <r>   38.4311    0.0000 </r>
       <r>   42.0079    0.0000 </r>
      </set>
      <set comment="kpoint 27">
       <r>    2.8430    1.0000 </r>
       <r>    6.5324    1.0000 </r>
       <r>    7.1960    1.0000 </r>
       <r>    7.3140    1.0000 </r>
       <r>    8.0451    1.0000 </r>
       <r>    8.4704    1.0000 </r>
       <r>   24.0484    0.0000 </r>
       <r>   30.4607    0.0000 </r>
       <r>   34.0364    0.0000 </r>
       <r>   36.8306    0.0000 </r>
       <r>   38.8206    0.0000 </r>
       <r>   40.6465    0.0000 </r>
      </set>
      <set comment="kpoint 28">
       <r>    4.4488    1.0000 </r>
       <r>    5.6839    1.0000 </r>
       <r>    7.8107    1.0000 </r>
       <r>    8.2377    1.0000 </r>
       <r>    8.6006    1.0000 </r>
       <r>    8.6862    1.0000 </r>
       <r>   25.3588    0.0000 </r>
       <r>   25.8805    0.0000 </r>
       <r>   26.6481    0.0000 </r>
       <r>   30.2400    0.0000 </r>
       <r>   33.9360    0.0000 </r>
       <r>   50.7315    0.0000 </r>
      </set>
      <set comment="kpoint 29">
       <r>    4.8940    1.0000 </r>
       <r>    5.5483    1.0000 </r>
       <r>    7.7639    1.0000 </r>
       <r>    8.4560    1.0000 </r>
       <r>    8.7588    1.0000 </r>
       <r>   10.1206   -0.0000 </r>
       <r>   22.8271    0.0000 </r>
       <r>   23.3401    0.0000 </r>
       <r>   25.0759    0.0000 </r>
       <r>   31.2424    0.0000 </r>
       <r>   35.0000    0.0000 </r>
       <r>   49.0334    0.0000 </r>
      </set>
      <set comment="kpoint 30">
       <r>    5.2733    1.0000 </r>
       <r>    5.6408    1.0000 </r>
       <r>    7.4011    1.0000 </r>
       <r>    8.2912    1.0000 </r>
       <r>    8.8459    1.0002 </r>
       <r>   12.6826   -0.0000 </r>
       <r>   18.9318    0.0000 </r>
       <r>   21.1847    0.0000 </r>
       <r>   25.3566    0.0000 </r>
       <r>   31.7539    0.0000 </r>
       <r>   38.9461    0.0000 </r>
       <r>   47.1392    0.0000 </r>
      </set>
      <set comment="kpoint 31">
       <r>    5.6555    1.0000 </r>
       <r>    5.8655    1.0000 </r>
       <r>    6.9319    1.0000 </r>
       <r>    8.1040    1.0000 </r>
       <r>    8.6413    1.0000 </r>
       <r>   15.0742    0.0000 </r>
       <r>   16.0841    0.0000 </r>
       <r>   20.0633    0.0000 </r>
       <r>   26.5956    0.0000 </r>
       <r>   32.3006    0.0000 </r>
       <r>   44.0123    0.0000 </r>
       <r>   45.2668    0.0000 </r>
      </set>
      <set comment="kpoint 32">
       <r>    5.7382    1.0000 </r>
       <r>    6.2113    1.0000 </r>
       <r>    6.5451    1.0000 </r>
       <r>    7.8560    1.0000 </r>
       <r>    8.3977    1.0000 </r>
       <r>   12.4167   -0.0000 </r>
       <r>   18.0721    0.0000 </r>
       <r>   21.2230    0.0000 </r>
       <r>   28.5334    0.0000 </r>
       <r>   33.3001    0.0000 </r>
       <r>   42.5461    0.0000 </r>
       <r>   46.5402    0.0000 </r>
      </set>
      <set comment="kpoint 33">
       <r>    5.0218    1.0000 </r>
       <r>    6.6259    1.0000 </r>
       <r>    6.7198    1.0000 </r>
       <r>    7.4894    1.0000 </r>
       <r>    8.3659    1.0000 </r>
       <r>   10.3375   -0.0000 </r>
       <r>   18.5791    0.0000 </r>
       <r>   25.2872    0.0000 </r>
       <r>   30.8656    0.0000 </r>
       <r>   34.6035    0.0000 </r>
       <r>   39.5964    0.0000 </r>
       <r>   42.9978    0.0000 </r>
      </set>
      <set comment="kpoint 34">
       <r>    4.1987    1.0000 </r>
       <r>    6.8702    1.0000 </r>
       <r>    7.0249    1.0000 </r>
       <r>    7.2178    1.0000 </r>
       <r>    8.4651    1.0000 </r>
       <r>    8.9509    1.0027 </r>
       <r>   19.3806    0.0000 </r>
       <r>   30.0417    0.0000 </r>
       <r>   32.8105    0.0000 </r>
       <r>   34.8920    0.0000 </r>
       <r>   38.5406    0.0000 </r>
       <r>   40.3506    0.0000 </r>
      </set>
      <set comment="kpoint 35">
       <r>    4.7952    1.0000 </r>
       <r>    5.3237    1.0000 </r>
       <r>    8.6320    1.0000 </r>
       <r>    8.7174    1.0000 </r>
       <r>    8.8718    1.0005 </r>
       <r>   10.7609   -0.0000 </r>
       <r>   20.5121    0.0000 </r>
       <r>   23.9697    0.0000 </r>
       <r>   24.7938    0.0000 </r>
       <r>   29.6944    0.0000 </r>
       <r>   33.2229    0.0000 </r>
       <r>   53.0029    0.0000 </r>
      </set>
      <set comment="kpoint 36">
       <r>    4.9159    1.0000 </r>
       <r>    5.3326    1.0000 </r>
       <r>    8.3204    1.0000 </r>
       <r>    8.7146    1.0000 </r>
       <r>    8.9228    1.0015 </r>
       <r>   12.5539   -0.0000 </r>
       <r>   18.9800    0.0000 </r>
       <r>   22.1506    0.0000 </r>
       <r>   24.0032    0.0000 </r>
       <r>   30.8345    0.0000 </r>
       <r>   34.5978    0.0000 </r>
       <r>   51.2603    0.0000 </r>
      </set>
      <set comment="kpoint 37">
       <r>    5.2542    1.0000 </r>
       <r>    5.5716    1.0000 </r>
       <r>    7.5639    1.0000 </r>
       <r>    8.4271    1.0000 </r>
       <r>    8.8239    1.0001 </r>
       <r>   14.0358   -0.0000 </r>
       <r>   18.4326    0.0000 </r>
       <r>   19.5322    0.0000 </r>
       <r>   25.0307    0.0000 </r>
       <r>   31.6351    0.0000 </r>
       <r>   38.8179    0.0000 </r>
       <r>   48.1205    0.0000 </r>
      </set>
      <set comment="kpoint 38">
       <r>    5.5779    1.0000 </r>
       <r>    5.9616    1.0000 </r>
       <r>    6.9191    1.0000 </r>
       <r>    7.9353    1.0000 </r>
       <r>    8.7328    1.0000 </r>
       <r>   13.8557   -0.0000 </r>
       <r>   16.0289    0.0000 </r>
       <r>   22.0325    0.0000 </r>
       <r>   26.8722    0.0000 </r>
       <r>   32.3905    0.0000 </r>
       <r>   43.4515    0.0000 </r>
       <r>   44.9645    0.0000 </r>
      </set>
      <set comment="kpoint 39">
       <r>    5.2072    1.0000 </r>
       <r>    6.5015    1.0000 </r>
       <r>    7.1041    1.0000 </r>
       <r>    7.4337    1.0000 </r>
       <r>    8.7094    1.0000 </r>
       <r>   11.9623   -0.0000 </r>
       <r>   15.4604    0.0000 </r>
       <r>   25.9279    0.0000 </r>
       <r>   29.2103    0.0000 </r>
       <r>   33.3528    0.0000 </r>
       <r>   40.3157    0.0000 </r>
       <r>   43.7740    0.0000 </r>
      </set>
      <set comment="kpoint 40">
       <r>    4.6974    1.0000 </r>
       <r>    6.8909    1.0000 </r>
       <r>    7.1156    1.0000 </r>
       <r>    7.7405    1.0000 </r>
       <r>    8.7604    1.0000 </r>
       <r>    9.9642   -0.0003 </r>
       <r>   15.8078    0.0000 </r>
       <r>   30.0744    0.0000 </r>
       <r>   31.8222    0.0000 </r>
       <r>   33.7219    0.0000 </r>
       <r>   38.2834    0.0000 </r>
       <r>   39.9056    0.0000 </r>
      </set>
      <set comment="kpoint 41">
       <r>    4.7845    1.0000 </r>
       <r>    5.2457    1.0000 </r>
       <r>    8.7894    1.0000 </r>
       <r>    8.8168    1.0001 </r>
       <r>    8.9313    1.0018 </r>
       <r>   11.8766   -0.0000 </r>
       <r>   18.9034    0.0000 </r>
       <r>   23.5967    0.0000 </r>
       <r>   24.3973    0.0000 </r>
       <r>   29.5944    0.0000 </r>
       <r>   33.1208    0.0000 </r>
       <r>   53.4078    0.0000 </r>
      </set>
      <set comment="kpoint 42">
       <r>    4.9337    1.0000 </r>
       <r>    5.4064    1.0000 </r>
       <r>    8.1162    1.0000 </r>
       <r>    8.6465    1.0000 </r>
       <r>    8.8552    1.0003 </r>
       <r>   11.4131   -0.0000 </r>
       <r>   20.6329    0.0000 </r>
       <r>   22.4992    0.0000 </r>
       <r>   24.3656    0.0000 </r>
       <r>   30.9675    0.0000 </r>
       <r>   34.7202    0.0000 </r>
       <r>   50.3737    0.0000 </r>
      </set>
      <set comment="kpoint 43">
       <r>    5.2300    1.0000 </r>
       <r>    5.7833    1.0000 </r>
       <r>    7.1485    1.0000 </r>
       <r>    8.0788    1.0000 </r>
       <r>    8.8320    1.0002 </r>
       <r>   11.1870   -0.0000 </r>
       <r>   19.5668    0.0000 </r>
       <r>   23.6248    0.0000 </r>
       <r>   26.0008    0.0000 </r>
       <r>   32.0114    0.0000 </r>
       <r>   39.2172    0.0000 </r>
       <r>   45.7973    0.0000 </r>
      </set>
      <set comment="kpoint 44">
       <r>    5.0865    1.0000 </r>
       <r>    6.4400    1.0000 </r>
       <r>    6.9236    1.0000 </r>
       <r>    7.5042    1.0000 </r>
       <r>    8.7971    1.0001 </r>
       <r>   10.7466   -0.0000 </r>
       <r>   17.2590    0.0000 </r>
       <r>   27.1474    0.0000 </r>
       <r>   28.3703    0.0000 </r>
       <r>   32.9647    0.0000 </r>
       <r>   41.1280    0.0000 </r>
       <r>   44.4820    0.0000 </r>
      </set>
      <set comment="kpoint 45">
       <r>    4.7423    1.0000 </r>
       <r>    5.4739    1.0000 </r>
       <r>    8.3060    1.0000 </r>
       <r>    8.5111    1.0000 </r>
       <r>    8.7884    1.0000 </r>
       <r>    9.4674    0.2744 </r>
       <r>   22.8730    0.0000 </r>
       <r>   24.6914    0.0000 </r>
       <r>   25.5601    0.0000 </r>
       <r>   29.9038    0.0000 </r>
       <r>   33.4713    0.0000 </r>
       <r>   52.1328    0.0000 </r>
      </set>
      <set comment="kpoint 46">
       <r>    4.6170    1.0000 </r>
       <r>    5.7465    1.0000 </r>
       <r>    7.3870    1.0000 </r>
       <r>    8.1882    1.0000 </r>
       <r>    8.5956    1.0000 </r>
       <r>    9.1880    1.0335 </r>
       <r>   23.9511    0.0000 </r>
       <r>   25.5943    0.0000 </r>
       <r>   26.3006    0.0000 </r>
       <r>   31.6856    0.0000 </r>
       <r>   35.4927    0.0000 </r>
       <r>   47.5258    0.0000 </r>
      </set>
      <set comment="kpoint 47">
       <r>    4.3899    1.0000 </r>
       <r>    6.1858    1.0000 </r>
       <r>    6.9561    1.0000 </r>
       <r>    7.6177    1.0000 </r>
       <r>    8.5532    1.0000 </r>
       <r>    9.1418    1.0334 </r>
       <r>   21.4489    0.0000 </r>
       <r>   27.7821    0.0000 </r>
       <r>   29.4843    0.0000 </r>
       <r>   33.1787    0.0000 </r>
       <r>   40.2080    0.0000 </r>
       <r>   42.9096    0.0000 </r>
      </set>
      <set comment="kpoint 48">
       <r>    3.7679    1.0000 </r>
       <r>    5.9362    1.0000 </r>
       <r>    7.4771    1.0000 </r>
       <r>    7.9413    1.0000 </r>
       <r>    8.1292    1.0000 </r>
       <r>    8.5702    1.0000 </r>
       <r>   26.7818    0.0000 </r>
       <r>   28.0077    0.0000 </r>
       <r>   28.4053    0.0000 </r>
       <r>   30.7602    0.0000 </r>
       <r>   34.7476    0.0000 </r>
       <r>   48.7080    0.0000 </r>
      </set>
      <set comment="kpoint 49">
       <r>    3.0701    1.0000 </r>
       <r>    6.2358    1.0000 </r>
       <r>    7.2555    1.0000 </r>
       <r>    7.6366    1.0000 </r>
       <r>    7.9731    1.0000 </r>
       <r>    8.5280    1.0000 </r>
       <r>   26.3038    0.0000 </r>
       <r>   28.4314    0.0000 </r>
       <r>   31.6391    0.0000 </r>
       <r>   33.3298    0.0000 </r>
       <r>   37.4319    0.0000 </r>
       <r>   44.2533    0.0000 </r>
      </set>
      <set comment="kpoint 50">
       <r>    1.9730    1.0000 </r>
       <r>    6.4727    1.0000 </r>
       <r>    7.3814    1.0000 </r>
       <r>    7.4069    1.0000 </r>
       <r>    7.7571    1.0000 </r>
       <r>    8.3370    1.0000 </r>
       <r>   29.5112    0.0000 </r>
       <r>   31.3387    0.0000 </r>
       <r>   31.9140    0.0000 </r>
       <r>   33.6178    0.0000 </r>
       <r>   38.3079    0.0000 </r>
       <r>   44.2002    0.0000 </r>
      </set>
      <set comment="kpoint 51">
       <r>    1.2432    1.0000 </r>
       <r>    6.7895    1.0000 </r>
       <r>    7.1415    1.0000 </r>
       <r>    7.1415    1.0000 </r>
       <r>    8.0992    1.0000 </r>
       <r>    8.0992    1.0000 </r>
       <r>   28.9753    0.0000 </r>
       <r>   34.0108    0.0000 </r>
       <r>   35.7352    0.0000 </r>
       <r>   35.7352    0.0000 </r>
       <r>   41.1131    0.0000 </r>
       <r>   41.8245    0.0000 </r>
      </set>
      <set comment="kpoint 52">
       <r>    1.9705    1.0000 </r>
       <r>    6.6147    1.0000 </r>
       <r>    7.2194    1.0000 </r>
       <r>    7.2913    1.0000 </r>
       <r>    7.8912    1.0000 </r>
       <r>    8.3343    1.0000 </r>
       <r>   27.4851    0.0000 </r>
       <r>   29.7628    0.0000 </r>
       <r>   36.3093    0.0000 </r>
       <r>   38.3260    0.0000 </r>
       <r>   38.6201    0.0000 </r>
       <r>   40.2089    0.0000 </r>
      </set>
      <set comment="kpoint 53">
       <r>    3.2781    1.0000 </r>
       <r>    6.4259    1.0000 </r>
       <r>    7.1251    1.0000 </r>
       <r>    7.5079    1.0000 </r>
       <r>    7.8025    1.0000 </r>
       <r>    8.8052    1.0001 </r>
       <r>   24.4156    0.0000 </r>
       <r>   26.7266    0.0000 </r>
       <r>   35.6057    0.0000 </r>
       <r>   36.9080    0.0000 </r>
       <r>   38.4249    0.0000 </r>
       <r>   40.4915    0.0000 </r>
      </set>
      <set comment="kpoint 54">
       <r>    4.5774    1.0000 </r>
       <r>    6.6201    1.0000 </r>
       <r>    6.8896    1.0000 </r>
       <r>    7.3876    1.0000 </r>
       <r>    8.2065    1.0000 </r>
       <r>    9.6078   -0.0229 </r>
       <r>   19.7499    0.0000 </r>
       <r>   26.3879    0.0000 </r>
       <r>   33.6128    0.0000 </r>
       <r>   34.0339    0.0000 </r>
       <r>   40.2042    0.0000 </r>
       <r>   40.2477    0.0000 </r>
      </set>
      <set comment="kpoint 55">
       <r>    5.0099    1.0000 </r>
       <r>    6.6885    1.0000 </r>
       <r>    7.2355    1.0000 </r>
       <r>    7.3041    1.0000 </r>
       <r>    8.6242    1.0000 </r>
       <r>   11.0045   -0.0000 </r>
       <r>   16.0285    0.0000 </r>
       <r>   26.7622    0.0000 </r>
       <r>   31.7524    0.0000 </r>
       <r>   32.4249    0.0000 </r>
       <r>   40.5937    0.0000 </r>
       <r>   41.2197    0.0000 </r>
      </set>
      <set comment="kpoint 56">
       <r>    4.9882    1.0000 </r>
       <r>    6.6261    1.0000 </r>
       <r>    7.1919    1.0000 </r>
       <r>    7.3323    1.0000 </r>
       <r>    8.8327    1.0002 </r>
       <r>   10.9131   -0.0000 </r>
       <r>   16.0089    0.0000 </r>
       <r>   27.8177    0.0000 </r>
       <r>   30.3129    0.0000 </r>
       <r>   32.0366    0.0000 </r>
       <r>   41.5912    0.0000 </r>
       <r>   41.6992    0.0000 </r>
      </set>
      <set comment="kpoint 57">
       <r>    4.5302    1.0000 </r>
       <r>    6.4219    1.0000 </r>
       <r>    6.9409    1.0000 </r>
       <r>    7.4369    1.0000 </r>
       <r>    8.7605    1.0000 </r>
       <r>    9.2267    1.0156 </r>
       <r>   19.7161    0.0000 </r>
       <r>   29.3660    0.0000 </r>
       <r>   29.8007    0.0000 </r>
       <r>   32.3971    0.0000 </r>
       <r>   42.2429    0.0000 </r>
       <r>   42.7396    0.0000 </r>
      </set>
      <set comment="kpoint 58">
       <r>    3.2612    1.0000 </r>
       <r>    6.2824    1.0000 </r>
       <r>    7.1865    1.0000 </r>
       <r>    7.5095    1.0000 </r>
       <r>    8.2053    1.0000 </r>
       <r>    8.5184    1.0000 </r>
       <r>   24.4070    0.0000 </r>
       <r>   30.1758    0.0000 </r>
       <r>   30.9009    0.0000 </r>
       <r>   33.4671    0.0000 </r>
       <r>   38.9906    0.0000 </r>
       <r>   43.1868    0.0000 </r>
      </set>
      <set comment="kpoint 59">
       <r>    2.4232    1.0000 </r>
       <r>    6.5020    1.0000 </r>
       <r>    7.2559    1.0000 </r>
       <r>    7.3395    1.0000 </r>
       <r>    7.9859    1.0000 </r>
       <r>    8.3592    1.0000 </r>
       <r>   25.7874    0.0000 </r>
       <r>   31.9137    0.0000 </r>
       <r>   32.1661    0.0000 </r>
       <r>   36.0747    0.0000 </r>
       <r>   39.3083    0.0000 </r>
       <r>   41.8959    0.0000 </r>
      </set>
      <set comment="kpoint 60">
       <r>    3.4713    1.0000 </r>
       <r>    6.2826    1.0000 </r>
       <r>    7.0946    1.0000 </r>
       <r>    7.6324    1.0000 </r>
       <r>    7.9610    1.0000 </r>
       <r>    8.7889    1.0000 </r>
       <r>   24.5893    0.0000 </r>
       <r>   26.8561    0.0000 </r>
       <r>   32.3875    0.0000 </r>
       <r>   35.4981    0.0000 </r>
       <r>   38.9972    0.0000 </r>
       <r>   41.6587    0.0000 </r>
      </set>
      <set comment="kpoint 61">
       <r>    4.7432    1.0000 </r>
       <r>    6.2007    1.0000 </r>
       <r>    6.7704    1.0000 </r>
       <r>    7.8085    1.0000 </r>
       <r>    8.1226    1.0000 </r>
       <r>    9.7236   -0.0250 </r>
       <r>   21.8122    0.0000 </r>
       <r>   24.2314    0.0000 </r>
       <r>   29.9475    0.0000 </r>
       <r>   36.7470    0.0000 </r>
       <r>   38.3141    0.0000 </r>
       <r>   42.6440    0.0000 </r>
      </set>
      <set comment="kpoint 62">
       <r>    5.3855    1.0000 </r>
       <r>    6.3750    1.0000 </r>
       <r>    6.6785    1.0000 </r>
       <r>    7.6668    1.0000 </r>
       <r>    8.5523    1.0000 </r>
       <r>   11.4129   -0.0000 </r>
       <r>   17.5994    0.0000 </r>
       <r>   24.3813    0.0000 </r>
       <r>   27.8934    0.0000 </r>
       <r>   35.4405    0.0000 </r>
       <r>   39.2775    0.0000 </r>
       <r>   45.7736    0.0000 </r>
      </set>
      <set comment="kpoint 63">
       <r>    5.4339    1.0000 </r>
       <r>    6.2797    1.0000 </r>
       <r>    6.8896    1.0000 </r>
       <r>    7.6296    1.0000 </r>
       <r>    8.7359    1.0000 </r>
       <r>   12.6872   -0.0000 </r>
       <r>   15.6354    0.0000 </r>
       <r>   25.2268    0.0000 </r>
       <r>   26.5380    0.0000 </r>
       <r>   34.6871    0.0000 </r>
       <r>   39.8599    0.0000 </r>
       <r>   46.6501    0.0000 </r>
      </set>
      <set comment="kpoint 64">
       <r>    5.2028    1.0000 </r>
       <r>    6.2109    1.0000 </r>
       <r>    6.7357    1.0000 </r>
       <r>    7.7490    1.0000 </r>
       <r>    8.6325    1.0000 </r>
       <r>   10.6272   -0.0000 </r>
       <r>   18.9003    0.0000 </r>
       <r>   25.4928    0.0000 </r>
       <r>   27.1890    0.0000 </r>
       <r>   34.5817    0.0000 </r>
       <r>   40.1828    0.0000 </r>
       <r>   43.5451    0.0000 </r>
      </set>
      <set comment="kpoint 65">
       <r>    4.3023    1.0000 </r>
       <r>    6.0737    1.0000 </r>
       <r>    6.9612    1.0000 </r>
       <r>    7.8732    1.0000 </r>
       <r>    8.2158    1.0000 </r>
       <r>    9.1750    1.0352 </r>
       <r>   23.3674    0.0000 </r>
       <r>   25.6263    0.0000 </r>
       <r>   29.3510    0.0000 </r>
       <r>   34.5931    0.0000 </r>
       <r>   38.2181    0.0000 </r>
       <r>   42.9923    0.0000 </r>
      </set>
      <set comment="kpoint 66">
       <r>    4.1125    1.0000 </r>
       <r>    6.0477    1.0000 </r>
       <r>    7.1105    1.0000 </r>
       <r>    7.7218    1.0000 </r>
       <r>    8.6695    1.0000 </r>
       <r>    8.6777    1.0000 </r>
       <r>   23.1772    0.0000 </r>
       <r>   28.6268    0.0000 </r>
       <r>   28.7460    0.0000 </r>
       <r>   31.9131    0.0000 </r>
       <r>   38.0775    0.0000 </r>
       <r>   45.3952    0.0000 </r>
      </set>
      <set comment="kpoint 67">
       <r>    4.9219    1.0000 </r>
       <r>    5.8713    1.0000 </r>
       <r>    6.9721    1.0000 </r>
       <r>    8.1390    1.0000 </r>
       <r>    8.4764    1.0000 </r>
       <r>    9.8433   -0.0046 </r>
       <r>   22.3130    0.0000 </r>
       <r>   24.5459    0.0000 </r>
       <r>   26.4101    0.0000 </r>
       <r>   33.8936    0.0000 </r>
       <r>   37.6159    0.0000 </r>
       <r>   44.3065    0.0000 </r>
      </set>
      <set comment="kpoint 68">
       <r>    5.5052    1.0000 </r>
       <r>    5.9166    1.0000 </r>
       <r>    6.7198    1.0000 </r>
       <r>    8.2051    1.0000 </r>
       <r>    8.6115    1.0000 </r>
       <r>   11.8073   -0.0000 </r>
       <r>   19.9234    0.0000 </r>
       <r>   22.4807    0.0000 </r>
       <r>   24.1472    0.0000 </r>
       <r>   35.8774    0.0000 </r>
       <r>   39.0836    0.0000 </r>
       <r>   43.1796    0.0000 </r>
      </set>
      <set comment="kpoint 69">
       <r>    5.8108    1.0000 </r>
       <r>    5.9696    1.0000 </r>
       <r>    6.6012    1.0000 </r>
       <r>    7.9996    1.0000 </r>
       <r>    8.7581    1.0000 </r>
       <r>   14.4718   -0.0000 </r>
       <r>   16.3326    0.0000 </r>
       <r>   22.2683    0.0000 </r>
       <r>   23.4205    0.0000 </r>
       <r>   36.4118    0.0000 </r>
       <r>   40.3531    0.0000 </r>
       <r>   45.0084    0.0000 </r>
      </set>
      <set comment="kpoint 70">
       <r>    5.8037    1.0000 </r>
       <r>    6.1309    1.0000 </r>
       <r>    6.3778    1.0000 </r>
       <r>    8.0347    1.0000 </r>
       <r>    8.5945    1.0000 </r>
       <r>   12.7811   -0.0000 </r>
       <r>   18.4935    0.0000 </r>
       <r>   21.4678    0.0000 </r>
       <r>   24.8366    0.0000 </r>
       <r>   37.2648    0.0000 </r>
       <r>   39.1665    0.0000 </r>
       <r>   44.2609    0.0000 </r>
      </set>
      <set comment="kpoint 71">
       <r>    5.2906    1.0000 </r>
       <r>    6.0561    1.0000 </r>
       <r>    6.6357    1.0000 </r>
       <r>    8.0312    1.0000 </r>
       <r>    8.3805    1.0000 </r>
       <r>   10.5708   -0.0000 </r>
       <r>   20.7690    0.0000 </r>
       <r>   23.2676    0.0000 </r>
       <r>   26.9385    0.0000 </r>
       <r>   36.3209    0.0000 </r>
       <r>   38.6753    0.0000 </r>
       <r>   42.7695    0.0000 </r>
      </set>
      <set comment="kpoint 72">
       <r>    5.0180    1.0000 </r>
       <r>    5.6257    1.0000 </r>
       <r>    7.5301    1.0000 </r>
       <r>    8.2108    1.0000 </r>
       <r>    8.8713    1.0004 </r>
       <r>   10.5301   -0.0000 </r>
       <r>   21.2385    0.0000 </r>
       <r>   23.3012    0.0000 </r>
       <r>   26.2688    0.0000 </r>
       <r>   30.8423    0.0000 </r>
       <r>   36.8383    0.0000 </r>
       <r>   48.8207    0.0000 </r>
      </set>
      <set comment="kpoint 73">
       <r>    5.1830    1.0000 </r>
       <r>    5.5722    1.0000 </r>
       <r>    7.5057    1.0000 </r>
       <r>    8.4960    1.0000 </r>
       <r>    8.8196    1.0001 </r>
       <r>   12.3212   -0.0000 </r>
       <r>   20.6604    0.0000 </r>
       <r>   21.1511    0.0000 </r>
       <r>   23.2883    0.0000 </r>
       <r>   33.0637    0.0000 </r>
       <r>   36.9718    0.0000 </r>
       <r>   46.9776    0.0000 </r>
      </set>
      <set comment="kpoint 74">
       <r>    5.4278    1.0000 </r>
       <r>    5.7691    1.0000 </r>
       <r>    7.0984    1.0000 </r>
       <r>    8.2830    1.0000 </r>
       <r>    8.9182    1.0013 </r>
       <r>   14.7813   -0.0000 </r>
       <r>   18.8710    0.0000 </r>
       <r>   19.6142    0.0000 </r>
       <r>   21.8828    0.0000 </r>
       <r>   35.3958    0.0000 </r>
       <r>   39.4613    0.0000 </r>
       <r>   44.6281    0.0000 </r>
      </set>
      <set comment="kpoint 75">
       <r>    5.7458    1.0000 </r>
       <r>    6.0394    1.0000 </r>
       <r>    6.5768    1.0000 </r>
       <r>    8.0736    1.0000 </r>
       <r>    8.7965    1.0001 </r>
       <r>   15.5713    0.0000 </r>
       <r>   16.5745    0.0000 </r>
       <r>   20.2646    0.0000 </r>
       <r>   23.1133    0.0000 </r>
       <r>   36.4886    0.0000 </r>
       <r>   41.4785    0.0000 </r>
       <r>   44.1249    0.0000 </r>
      </set>
      <set comment="kpoint 76">
       <r>    5.6680    1.0000 </r>
       <r>    6.1098    1.0000 </r>
       <r>    6.6397    1.0000 </r>
       <r>    7.8540    1.0000 </r>
       <r>    8.6825    1.0000 </r>
       <r>   12.8374   -0.0000 </r>
       <r>   16.8288    0.0000 </r>
       <r>   23.6457    0.0000 </r>
       <r>   25.1077    0.0000 </r>
       <r>   36.1044    0.0000 </r>
       <r>   39.4910    0.0000 </r>
       <r>   45.7001    0.0000 </r>
      </set>
      <set comment="kpoint 77">
       <r>    5.0369    1.0000 </r>
       <r>    5.4131    1.0000 </r>
       <r>    8.0421    1.0000 </r>
       <r>    8.5972    1.0000 </r>
       <r>    8.8672    1.0004 </r>
       <r>   13.1157   -0.0000 </r>
       <r>   19.0099    0.0000 </r>
       <r>   20.4285    0.0000 </r>
       <r>   25.1707    0.0000 </r>
       <r>   30.5293    0.0000 </r>
       <r>   36.3916    0.0000 </r>
       <r>   50.8152    0.0000 </r>
      </set>
      <set comment="kpoint 78">
       <r>    5.1512    1.0000 </r>
       <r>    5.5073    1.0000 </r>
       <r>    7.7014    1.0000 </r>
       <r>    8.5202    1.0000 </r>
       <r>    8.9193    1.0014 </r>
       <r>   13.5798   -0.0000 </r>
       <r>   19.1286    0.0000 </r>
       <r>   20.6029    0.0000 </r>
       <r>   22.9633    0.0000 </r>
       <r>   32.9029    0.0000 </r>
       <r>   36.8645    0.0000 </r>
       <r>   47.9587    0.0000 </r>
      </set>
      <set comment="kpoint 79">
       <r>    5.4825    1.0000 </r>
       <r>    5.8176    1.0000 </r>
       <r>    6.9383    1.0000 </r>
       <r>    8.2777    1.0000 </r>
       <r>    8.8035    1.0001 </r>
       <r>   13.3414   -0.0000 </r>
       <r>   19.3048    0.0000 </r>
       <r>   21.3131    0.0000 </r>
       <r>   22.2625    0.0000 </r>
       <r>   35.5586    0.0000 </r>
       <r>   39.3458    0.0000 </r>
       <r>   43.9133    0.0000 </r>
      </set>
      <set comment="kpoint 80">
       <r>    5.0560    1.0000 </r>
       <r>    5.4852    1.0000 </r>
       <r>    7.8560    1.0000 </r>
       <r>    8.4369    1.0000 </r>
       <r>    8.8931    1.0008 </r>
       <r>   11.9056   -0.0000 </r>
       <r>   20.4290    0.0000 </r>
       <r>   21.0572    0.0000 </r>
       <r>   25.5438    0.0000 </r>
       <r>   30.6278    0.0000 </r>
       <r>   36.5317    0.0000 </r>
       <r>   50.0216    0.0000 </r>
      </set>
      <set comment="kpoint 81">
       <r>    5.1690    1.0000 </r>
       <r>    5.6976    1.0000 </r>
       <r>    7.2062    1.0000 </r>
       <r>    8.3719    1.0000 </r>
       <r>    8.6680    1.0000 </r>
       <r>   10.9249   -0.0000 </r>
       <r>   21.4501    0.0000 </r>
       <r>   23.2584    0.0000 </r>
       <r>   24.0735    0.0000 </r>
       <r>   33.3893    0.0000 </r>
       <r>   37.2099    0.0000 </r>
       <r>   45.6556    0.0000 </r>
      </set>
      <set comment="kpoint 82">
       <r>    4.7486    1.0000 </r>
       <r>    5.8209    1.0000 </r>
       <r>    7.2147    1.0000 </r>
       <r>    7.9627    1.0000 </r>
       <r>    8.7930    1.0001 </r>
       <r>    9.4297    0.4246 </r>
       <r>   22.1145    0.0000 </r>
       <r>   26.0078    0.0000 </r>
       <r>   27.3104    0.0000 </r>
       <r>   31.2188    0.0000 </r>
       <r>   37.3465    0.0000 </r>
       <r>   47.4973    0.0000 </r>
      </set>
      <set comment="kpoint 83">
       <r>    2.6155    1.0000 </r>
       <r>    6.6615    1.0000 </r>
       <r>    7.2075    1.0000 </r>
       <r>    7.2075    1.0000 </r>
       <r>    8.2163    1.0000 </r>
       <r>    8.2163    1.0000 </r>
       <r>   23.8561    0.0000 </r>
       <r>   33.2497    0.0000 </r>
       <r>   34.8703    0.0000 </r>
       <r>   34.8703    0.0000 </r>
       <r>   40.4950    0.0000 </r>
       <r>   40.4950    0.0000 </r>
      </set>
      <set comment="kpoint 84">
       <r>    3.4216    1.0000 </r>
       <r>    6.5420    1.0000 </r>
       <r>    7.1323    1.0000 </r>
       <r>    7.3222    1.0000 </r>
       <r>    8.0480    1.0000 </r>
       <r>    8.7343    1.0000 </r>
       <r>   22.4882    0.0000 </r>
       <r>   28.9929    0.0000 </r>
       <r>   34.7963    0.0000 </r>
       <r>   37.0243    0.0000 </r>
       <r>   38.4281    0.0000 </r>
       <r>   39.1391    0.0000 </r>
      </set>
      <set comment="kpoint 85">
       <r>    4.6186    1.0000 </r>
       <r>    6.3560    1.0000 </r>
       <r>    6.8459    1.0000 </r>
       <r>    7.6167    1.0000 </r>
       <r>    7.9480    1.0000 </r>
       <r>    9.6901   -0.0321 </r>
       <r>   21.6376    0.0000 </r>
       <r>   24.0970    0.0000 </r>
       <r>   33.8393    0.0000 </r>
       <r>   33.8634    0.0000 </r>
       <r>   40.4125    0.0000 </r>
       <r>   42.0278    0.0000 </r>
      </set>
      <set comment="kpoint 86">
       <r>    5.5086    1.0000 </r>
       <r>    6.4468    1.0000 </r>
       <r>    6.4779    1.0000 </r>
       <r>    7.7288    1.0000 </r>
       <r>    8.2257    1.0000 </r>
       <r>   11.2618   -0.0000 </r>
       <r>   19.1593    0.0000 </r>
       <r>   22.0042    0.0000 </r>
       <r>   31.0678    0.0000 </r>
       <r>   32.4714    0.0000 </r>
       <r>   42.9299    0.0000 </r>
       <r>   43.7112    0.0000 </r>
      </set>
      <set comment="kpoint 87">
       <r>    5.5573    1.0000 </r>
       <r>    6.1551    1.0000 </r>
       <r>    6.8703    1.0000 </r>
       <r>    7.7613    1.0000 </r>
       <r>    8.6404    1.0000 </r>
       <r>   13.3691   -0.0000 </r>
       <r>   15.7864    0.0000 </r>
       <r>   22.6085    0.0000 </r>
       <r>   28.9089    0.0000 </r>
       <r>   31.6075    0.0000 </r>
       <r>   44.4962    0.0000 </r>
       <r>   44.6575    0.0000 </r>
      </set>
      <set comment="kpoint 88">
       <r>    5.3135    1.0000 </r>
       <r>    5.9586    1.0000 </r>
       <r>    7.0300    1.0000 </r>
       <r>    7.8558    1.0000 </r>
       <r>    8.8616    1.0004 </r>
       <r>   11.6518   -0.0000 </r>
       <r>   17.8806    0.0000 </r>
       <r>   24.0011    0.0000 </r>
       <r>   27.6090    0.0000 </r>
       <r>   31.2571    0.0000 </r>
       <r>   41.7034    0.0000 </r>
       <r>   45.7572    0.0000 </r>
      </set>
      <set comment="kpoint 89">
       <r>    3.8784    1.0000 </r>
       <r>    6.5752    1.0000 </r>
       <r>    7.0634    1.0000 </r>
       <r>    7.2983    1.0000 </r>
       <r>    8.5620    1.0000 </r>
       <r>    8.6132    1.0000 </r>
       <r>   20.9143    0.0000 </r>
       <r>   31.2611    0.0000 </r>
       <r>   31.2840    0.0000 </r>
       <r>   34.2001    0.0000 </r>
       <r>   40.0232    0.0000 </r>
       <r>   42.0686    0.0000 </r>
      </set>
      <set comment="kpoint 90">
       <r>    4.7175    1.0000 </r>
       <r>    6.4002    1.0000 </r>
       <r>    6.8204    1.0000 </r>
       <r>    7.5437    1.0000 </r>
       <r>    8.4262    1.0000 </r>
       <r>    9.6793   -0.0338 </r>
       <r>   19.9135    0.0000 </r>
       <r>   26.5071    0.0000 </r>
       <r>   30.1040    0.0000 </r>
       <r>   35.0962    0.0000 </r>
       <r>   39.4246    0.0000 </r>
       <r>   43.1091    0.0000 </r>
      </set>
      <set comment="kpoint 91">
       <r>    5.6007    1.0000 </r>
       <r>    6.2704    1.0000 </r>
       <r>    6.4127    1.0000 </r>
       <r>    7.8938    1.0000 </r>
       <r>    8.3579    1.0000 </r>
       <r>   11.4073   -0.0000 </r>
       <r>   19.3534    0.0000 </r>
       <r>   22.1349    0.0000 </r>
       <r>   27.6855    0.0000 </r>
       <r>   35.9864    0.0000 </r>
       <r>   39.5943    0.0000 </r>
       <r>   44.8015    0.0000 </r>
      </set>
      <set comment="kpoint 92">
       <r>    5.9069    1.0000 </r>
       <r>    5.9544    1.0000 </r>
       <r>    6.5759    1.0000 </r>
       <r>    7.9913    1.0000 </r>
       <r>    8.6034    1.0000 </r>
       <r>   13.8826   -0.0000 </r>
       <r>   17.1798    0.0000 </r>
       <r>   20.6543    0.0000 </r>
       <r>   25.7248    0.0000 </r>
       <r>   34.7870    0.0000 </r>
       <r>   41.9462    0.0000 </r>
       <r>   46.3307    0.0000 </r>
      </set>
      <set comment="kpoint 93">
       <r>    5.5421    1.0000 </r>
       <r>    5.8430    1.0000 </r>
       <r>    6.9381    1.0000 </r>
       <r>    8.1334    1.0000 </r>
       <r>    8.7889    1.0000 </r>
[...]
       <r>    38.7712     0.1781    10.3456 </r>
       <r>    38.9654     0.2913    10.4022 </r>
       <r>    39.1596     0.3560    10.4714 </r>
       <r>    39.3538     0.3274    10.5349 </r>
       <r>    39.5481     0.2808    10.5895 </r>
       <r>    39.7423     0.3005    10.6478 </r>
       <r>    39.9365     0.2745    10.7012 </r>
       <r>    40.1307     0.2141    10.7427 </r>
       <r>    40.3249     0.3767    10.8159 </r>
       <r>    40.5191     0.2710    10.8685 </r>
       <r>    40.7133     0.1376    10.8952 </r>
       <r>    40.9075     0.1713    10.9285 </r>
       <r>    41.1018     0.2277    10.9727 </r>
       <r>    41.2960     0.1419    11.0003 </r>
       <r>    41.4902     0.1821    11.0357 </r>
       <r>    41.6844     0.2403    11.0823 </r>
       <r>    41.8786     0.1992    11.1210 </r>
       <r>    42.0728     0.2280    11.1653 </r>
       <r>    42.2670     0.1648    11.1973 </r>
       <r>    42.4612     0.2099    11.2381 </r>
       <r>    42.6555     0.1628    11.2697 </r>
       <r>    42.8497     0.1479    11.2984 </r>
       <r>    43.0439     0.2122    11.3396 </r>
       <r>    43.2381     0.1720    11.3730 </r>
       <r>    43.4323     0.0866    11.3898 </r>
       <r>    43.6265     0.1534    11.4196 </r>
       <r>    43.8207     0.1319    11.4452 </r>
       <r>    44.0150     0.1011    11.4649 </r>
       <r>    44.2092     0.2430    11.5121 </r>
       <r>    44.4034     0.3108    11.5724 </r>
       <r>    44.5976     0.1563    11.6028 </r>
       <r>    44.7918     0.1143    11.6250 </r>
       <r>    44.9860     0.1677    11.6576 </r>
       <r>    45.1802     0.1094    11.6788 </r>
       <r>    45.3744     0.0872    11.6957 </r>
       <r>    45.5687     0.0662    11.7086 </r>
       <r>    45.7629     0.1891    11.7453 </r>
       <r>    45.9571     0.1762    11.7795 </r>
       <r>    46.1513     0.0253    11.7844 </r>
       <r>    46.3455     0.0335    11.7909 </r>
       <r>    46.5397     0.0905    11.8085 </r>
       <r>    46.7339     0.0787    11.8238 </r>
       <r>    46.9281     0.0287    11.8294 </r>
       <r>    47.1224     0.0933    11.8475 </r>
       <r>    47.3166     0.0957    11.8661 </r>
       <r>    47.5108     0.0568    11.8771 </r>
       <r>    47.7050     0.0445    11.8858 </r>
       <r>    47.8992     0.0160    11.8889 </r>
       <r>    48.0934     0.0856    11.9055 </r>
       <r>    48.2876     0.0561    11.9164 </r>
       <r>    48.4819    -0.0025    11.9159 </r>
       <r>    48.6761     0.0119    11.9182 </r>
       <r>    48.8703     0.0413    11.9262 </r>
       <r>    49.0645     0.0495    11.9359 </r>
       <r>    49.2587     0.0235    11.9404 </r>
       <r>    49.4529    -0.0019    11.9401 </r>
       <r>    49.6471    -0.0007    11.9399 </r>
       <r>    49.8413    -0.0000    11.9399 </r>
       <r>    50.0356     0.0165    11.9431 </r>
       <r>    50.2298     0.0177    11.9466 </r>
       <r>    50.4240     0.0398    11.9543 </r>
       <r>    50.6182     0.0235    11.9589 </r>
       <r>    50.8124     0.0358    11.9658 </r>
       <r>    51.0066     0.0210    11.9699 </r>
       <r>    51.2008     0.0170    11.9732 </r>
       <r>    51.3951     0.0423    11.9814 </r>
       <r>    51.5893     0.0044    11.9822 </r>
       <r>    51.7835    -0.0018    11.9819 </r>
       <r>    51.9777     0.0010    11.9821 </r>
       <r>    52.1719     0.0199    11.9860 </r>
       <r>    52.3661     0.0115    11.9882 </r>
       <r>    52.5603    -0.0010    11.9880 </r>
       <r>    52.7545    -0.0011    11.9878 </r>
       <r>    52.9488     0.0097    11.9897 </r>
       <r>    53.1430     0.0200    11.9936 </r>
       <r>    53.3372     0.0097    11.9954 </r>
       <r>    53.5314     0.0213    11.9996 </r>
       <r>    53.7256     0.0029    12.0001 </r>
       <r>    53.9198    -0.0007    12.0000 </r>
       <r>    54.1140    -0.0000    12.0000 </r>
       <r>    54.3082    -0.0000    12.0000 </r>
       <r>    54.5025    -0.0000    12.0000 </r>
       <r>    54.6967    -0.0000    12.0000 </r>
       <r>    54.8909     0.0000    12.0000 </r>
       <r>    55.0851     0.0000    12.0000 </r>
       <r>    55.2793     0.0000    12.0000 </r>
       <r>    55.4735     0.0000    12.0000 </r>
       <r>    55.6677     0.0000    12.0000 </r>
       <r>    55.8620     0.0000    12.0000 </r>
       <r>    56.0562     0.0000    12.0000 </r>
      </set>
      <set comment="spin 2">
       <r>    -2.2078     0.0000     0.0000 </r>
       <r>    -2.0136     0.0000     0.0000 </r>
       <r>    -1.8193     0.0000     0.0000 </r>
       <r>    -1.6251     0.0000     0.0000 </r>
       <r>    -1.4309     0.0000     0.0000 </r>
       <r>    -1.2367    -0.0000    -0.0000 </r>
       <r>    -1.0425    -0.0000    -0.0000 </r>
       <r>    -0.8483    -0.0000    -0.0000 </r>
       <r>    -0.6541    -0.0000    -0.0000 </r>
       <r>    -0.4598    -0.0000    -0.0000 </r>
       <r>    -0.2656    -0.0000    -0.0000 </r>
       <r>    -0.0714    -0.0000    -0.0000 </r>
       <r>     0.1228    -0.0002    -0.0000 </r>
       <r>     0.3170     0.0007     0.0001 </r>
       <r>     0.5112     0.0069     0.0014 </r>
       <r>     0.7054     0.0183     0.0050 </r>
       <r>     0.8996     0.0237     0.0096 </r>
       <r>     1.0939     0.0247     0.0144 </r>
       <r>     1.2881     0.0319     0.0206 </r>
       <r>     1.4823     0.0453     0.0294 </r>
       <r>     1.6765     0.0366     0.0365 </r>
       <r>     1.8707     0.0302     0.0423 </r>
       <r>     2.0649     0.0556     0.0531 </r>
       <r>     2.2591     0.0730     0.0673 </r>
       <r>     2.4533     0.0377     0.0746 </r>
       <r>     2.6476     0.0482     0.0840 </r>
       <r>     2.8418     0.0787     0.0993 </r>
       <r>     3.0360     0.0694     0.1127 </r>
       <r>     3.2302     0.0720     0.1267 </r>
       <r>     3.4244     0.0861     0.1434 </r>
       <r>     3.6186     0.0874     0.1604 </r>
       <r>     3.8128     0.0771     0.1754 </r>
       <r>     4.0071     0.1006     0.1949 </r>
       <r>     4.2013     0.1445     0.2230 </r>
       <r>     4.3955     0.1247     0.2472 </r>
       <r>     4.5897     0.1209     0.2707 </r>
       <r>     4.7839     0.1823     0.3061 </r>
       <r>     4.9781     0.2814     0.3607 </r>
       <r>     5.1723     0.3521     0.4291 </r>
       <r>     5.3665     0.4698     0.5204 </r>
       <r>     5.5608     0.5333     0.6240 </r>
       <r>     5.7550     0.4655     0.7144 </r>
       <r>     5.9492     0.6644     0.8434 </r>
       <r>     6.1434     0.8234     1.0033 </r>
       <r>     6.3376     0.8856     1.1753 </r>
       <r>     6.5318     0.8276     1.3360 </r>
       <r>     6.7260     0.8021     1.4918 </r>
       <r>     6.9202     0.7909     1.6454 </r>
       <r>     7.1145     0.9779     1.8353 </r>
       <r>     7.3087     1.1665     2.0619 </r>
       <r>     7.5029     1.2145     2.2977 </r>
       <r>     7.6971     1.4072     2.5710 </r>
       <r>     7.8913     1.4502     2.8527 </r>
       <r>     8.0855     1.3562     3.1161 </r>
       <r>     8.2797     1.0558     3.3211 </r>
       <r>     8.4740     1.0293     3.5210 </r>
       <r>     8.6682     1.2705     3.7678 </r>
       <r>     8.8624     1.2933     4.0189 </r>
       <r>     9.0566     1.1329     4.2390 </r>
       <r>     9.2508     1.1065     4.4539 </r>
       <r>     9.4450     1.5163     4.7484 </r>
       <r>     9.6392     1.7841     5.0949 </r>
       <r>     9.8334     0.9443     5.2782 </r>
       <r>    10.0277     0.2331     5.3235 </r>
       <r>    10.2219     0.1253     5.3478 </r>
       <r>    10.4161     0.2414     5.3947 </r>
       <r>    10.6103     0.1753     5.4288 </r>
       <r>    10.8045     0.1173     5.4515 </r>
       <r>    10.9987     0.1761     5.4857 </r>
       <r>    11.1929     0.1752     5.5198 </r>
       <r>    11.3872     0.1565     5.5502 </r>
       <r>    11.5814     0.1176     5.5730 </r>
       <r>    11.7756     0.1919     5.6103 </r>
       <r>    11.9698     0.1471     5.6388 </r>
       <r>    12.1640     0.0874     5.6558 </r>
       <r>    12.3582     0.1290     5.6808 </r>
       <r>    12.5524     0.1126     5.7027 </r>
       <r>    12.7466     0.1903     5.7397 </r>
       <r>    12.9409     0.1292     5.7648 </r>
       <r>    13.1351     0.1345     5.7909 </r>
       <r>    13.3293     0.0790     5.8062 </r>
       <r>    13.5235     0.0330     5.8126 </r>
       <r>    13.7177     0.1076     5.8335 </r>
       <r>    13.9119     0.1347     5.8597 </r>
       <r>    14.1061     0.1329     5.8855 </r>
       <r>    14.3003     0.1125     5.9073 </r>
       <r>    14.4946     0.0142     5.9101 </r>
       <r>    14.6888     0.0545     5.9207 </r>
       <r>    14.8830     0.0811     5.9364 </r>
       <r>    15.0772     0.0620     5.9485 </r>
       <r>    15.2714     0.0582     5.9598 </r>
       <r>    15.4656     0.0779     5.9749 </r>
       <r>    15.6598     0.0844     5.9913 </r>
       <r>    15.8541     0.1595     6.0223 </r>
       <r>    16.0483     0.1160     6.0448 </r>
       <r>    16.2425     0.1919     6.0821 </r>
       <r>    16.4367     0.2300     6.1267 </r>
       <r>    16.6309     0.0962     6.1454 </r>
       <r>    16.8251     0.1325     6.1711 </r>
       <r>    17.0193     0.1198     6.1944 </r>
       <r>    17.2135     0.1528     6.2241 </r>
       <r>    17.4078     0.1454     6.2523 </r>
       <r>    17.6020     0.1277     6.2771 </r>
       <r>    17.7962     0.1382     6.3040 </r>
       <r>    17.9904     0.0731     6.3181 </r>
       <r>    18.1846     0.1052     6.3386 </r>
       <r>    18.3788     0.1431     6.3664 </r>
       <r>    18.5730     0.1033     6.3864 </r>
       <r>    18.7672     0.1040     6.4066 </r>
       <r>    18.9615     0.0950     6.4251 </r>
       <r>    19.1557     0.1762     6.4593 </r>
       <r>    19.3499     0.1704     6.4924 </r>
       <r>    19.5441     0.1537     6.5222 </r>
       <r>    19.7383     0.1674     6.5547 </r>
       <r>    19.9325     0.1907     6.5918 </r>
       <r>    20.1267     0.2038     6.6314 </r>
       <r>    20.3210     0.1032     6.6514 </r>
       <r>    20.5152     0.1051     6.6718 </r>
       <r>    20.7094     0.2281     6.7161 </r>
       <r>    20.9036     0.2426     6.7632 </r>
       <r>    21.0978     0.1385     6.7901 </r>
       <r>    21.2920     0.2123     6.8314 </r>
       <r>    21.4862     0.2477     6.8795 </r>
       <r>    21.6804     0.1904     6.9164 </r>
       <r>    21.8747     0.1233     6.9404 </r>
       <r>    22.0689     0.1198     6.9636 </r>
       <r>    22.2631     0.1897     7.0005 </r>
       <r>    22.4573     0.2629     7.0516 </r>
       <r>    22.6515     0.2006     7.0905 </r>
       <r>    22.8457     0.1336     7.1164 </r>
       <r>    23.0399     0.1693     7.1493 </r>
       <r>    23.2342     0.1864     7.1855 </r>
       <r>    23.4284     0.2819     7.2403 </r>
       <r>    23.6226     0.2611     7.2910 </r>
       <r>    23.8168     0.1109     7.3125 </r>
       <r>    24.0110     0.1025     7.3324 </r>
       <r>    24.2052     0.3074     7.3922 </r>
       <r>    24.3994     0.3002     7.4505 </r>
       <r>    24.5936     0.2504     7.4991 </r>
       <r>    24.7879     0.1808     7.5342 </r>
       <r>    24.9821     0.0912     7.5519 </r>
       <r>    25.1763     0.2236     7.5953 </r>
       <r>    25.3705     0.2708     7.6479 </r>
       <r>    25.5647     0.2232     7.6913 </r>
       <r>    25.7589     0.2019     7.7305 </r>
       <r>    25.9531     0.1594     7.7614 </r>
       <r>    26.1473     0.2201     7.8042 </r>
       <r>    26.3416     0.1503     7.8334 </r>
       <r>    26.5358     0.1983     7.8719 </r>
       <r>    26.7300     0.2283     7.9162 </r>
       <r>    26.9242     0.2439     7.9636 </r>
       <r>    27.1184     0.2318     8.0086 </r>
       <r>    27.3126     0.1811     8.0438 </r>
       <r>    27.5068     0.1058     8.0643 </r>
       <r>    27.7011     0.1457     8.0926 </r>
       <r>    27.8953     0.2549     8.1421 </r>
       <r>    28.0895     0.1124     8.1639 </r>
       <r>    28.2837     0.0607     8.1757 </r>
       <r>    28.4779     0.1936     8.2133 </r>
       <r>    28.6721     0.2281     8.2576 </r>
       <r>    28.8663     0.1860     8.2937 </r>
       <r>    29.0605     0.1787     8.3284 </r>
       <r>    29.2548     0.1518     8.3579 </r>
       <r>    29.4490     0.1565     8.3883 </r>
       <r>    29.6432     0.1336     8.4143 </r>
       <r>    29.8374     0.1117     8.4360 </r>
       <r>    30.0316     0.2228     8.4792 </r>
       <r>    30.2258     0.2411     8.5261 </r>
       <r>    30.4200     0.1098     8.5474 </r>
       <r>    30.6142     0.1298     8.5726 </r>
       <r>    30.8085     0.1839     8.6083 </r>
       <r>    31.0027     0.2566     8.6581 </r>
       <r>    31.1969     0.2333     8.7034 </r>
       <r>    31.3911     0.2526     8.7525 </r>
       <r>    31.5853     0.2136     8.7940 </r>
       <r>    31.7795     0.2782     8.8480 </r>
       <r>    31.9737     0.2854     8.9034 </r>
       <r>    32.1680     0.1999     8.9423 </r>
       <r>    32.3622     0.1986     8.9808 </r>
       <r>    32.5564     0.3287     9.0447 </r>
       <r>    32.7506     0.1347     9.0708 </r>
       <r>    32.9448     0.1700     9.1038 </r>
       <r>    33.1390     0.3235     9.1667 </r>
       <r>    33.3332     0.3765     9.2398 </r>
       <r>    33.5274     0.3536     9.3085 </r>
       <r>    33.7217     0.2221     9.3516 </r>
       <r>    33.9159     0.2326     9.3968 </r>
       <r>    34.1101     0.2504     9.4454 </r>
       <r>    34.3043     0.1718     9.4788 </r>
       <r>    34.4985     0.1674     9.5113 </r>
       <r>    34.6927     0.3478     9.5788 </r>
       <r>    34.8869     0.3593     9.6486 </r>
       <r>    35.0812     0.2943     9.7058 </r>
       <r>    35.2754     0.1961     9.7438 </r>
       <r>    35.4696     0.1532     9.7736 </r>
       <r>    35.6638     0.2178     9.8159 </r>
       <r>    35.8580     0.1285     9.8409 </r>
       <r>    36.0522     0.1284     9.8658 </r>
       <r>    36.2464     0.1379     9.8926 </r>
       <r>    36.4406     0.2078     9.9329 </r>
       <r>    36.6349     0.1998     9.9717 </r>
       <r>    36.8291     0.1932    10.0093 </r>
       <r>    37.0233     0.2459    10.0570 </r>
       <r>    37.2175     0.1782    10.0916 </r>
       <r>    37.4117     0.1419    10.1192 </r>
       <r>    37.6059     0.1247    10.1434 </r>
       <r>    37.8001     0.0929    10.1614 </r>
       <r>    37.9943     0.0826    10.1775 </r>
       <r>    38.1886     0.1705    10.2106 </r>
       <r>    38.3828     0.2792    10.2648 </r>
       <r>    38.5770     0.2225    10.3080 </r>
       <r>    38.7712     0.1684    10.3407 </r>
       <r>    38.9654     0.2248    10.3844 </r>
       <r>    39.1596     0.3341    10.4493 </r>
       <r>    39.3538     0.3766    10.5224 </r>
       <r>    39.5481     0.3092    10.5825 </r>
       <r>    39.7423     0.3047    10.6416 </r>
       <r>    39.9365     0.2946    10.6989 </r>
       <r>    40.1307     0.2068    10.7390 </r>
       <r>    40.3249     0.3605    10.8090 </r>
       <r>    40.5191     0.2805    10.8635 </r>
       <r>    40.7133     0.1368    10.8901 </r>
       <r>    40.9075     0.1797    10.9250 </r>
       <r>    41.1018     0.2458    10.9727 </r>
       <r>    41.2960     0.1238    10.9968 </r>
       <r>    41.4902     0.1678    11.0293 </r>
       <r>    41.6844     0.2652    11.0809 </r>
       <r>    41.8786     0.2027    11.1202 </r>
       <r>    42.0728     0.2140    11.1618 </r>
       <r>    42.2670     0.1851    11.1977 </r>
       <r>    42.4612     0.2082    11.2382 </r>
       <r>    42.6555     0.1346    11.2643 </r>
       <r>    42.8497     0.1617    11.2957 </r>
       <r>    43.0439     0.2302    11.3404 </r>
       <r>    43.2381     0.1656    11.3726 </r>
       <r>    43.4323     0.0718    11.3865 </r>
       <r>    43.6265     0.1244    11.4107 </r>
       <r>    43.8207     0.1738    11.4444 </r>
       <r>    44.0150     0.0879    11.4615 </r>
       <r>    44.2092     0.2499    11.5100 </r>
       <r>    44.4034     0.3158    11.5714 </r>
       <r>    44.5976     0.1819    11.6067 </r>
       <r>    44.7918     0.0819    11.6226 </r>
       <r>    44.9860     0.1249    11.6469 </r>
       <r>    45.1802     0.1616    11.6783 </r>
       <r>    45.3744     0.1126    11.7001 </r>
       <r>    45.5687     0.0420    11.7083 </r>
       <r>    45.7629     0.1841    11.7440 </r>
       <r>    45.9571     0.1929    11.7815 </r>
       <r>    46.1513     0.0136    11.7841 </r>
       <r>    46.3455     0.0284    11.7896 </r>
       <r>    46.5397     0.1172    11.8124 </r>
       <r>    46.7339     0.0662    11.8253 </r>
       <r>    46.9281     0.0269    11.8305 </r>
       <r>    47.1224     0.0887    11.8477 </r>
       <r>    47.3166     0.0840    11.8640 </r>
       <r>    47.5108     0.0753    11.8786 </r>
       <r>    47.7050     0.0379    11.8860 </r>
       <r>    47.8992     0.0274    11.8913 </r>
       <r>    48.0934     0.0904    11.9089 </r>
       <r>    48.2876     0.0397    11.9166 </r>
       <r>    48.4819    -0.0022    11.9162 </r>
       <r>    48.6761     0.0211    11.9202 </r>
       <r>    48.8703     0.0352    11.9271 </r>
       <r>    49.0645     0.0495    11.9367 </r>
       <r>    49.2587     0.0193    11.9404 </r>
       <r>    49.4529    -0.0021    11.9400 </r>
       <r>    49.6471    -0.0007    11.9399 </r>
       <r>    49.8413     0.0007    11.9400 </r>
       <r>    50.0356     0.0180    11.9435 </r>
       <r>    50.2298     0.0187    11.9472 </r>
       <r>    50.4240     0.0417    11.9552 </r>
       <r>    50.6182     0.0228    11.9597 </r>
       <r>    50.8124     0.0386    11.9672 </r>
       <r>    51.0066     0.0144    11.9700 </r>
       <r>    51.2008     0.0260    11.9750 </r>
       <r>    51.3951     0.0363    11.9821 </r>
       <r>    51.5893     0.0004    11.9822 </r>
       <r>    51.7835    -0.0014    11.9819 </r>
       <r>    51.9777     0.0021    11.9823 </r>
       <r>    52.1719     0.0213    11.9864 </r>
       <r>    52.3661     0.0092    11.9882 </r>
       <r>    52.5603    -0.0011    11.9880 </r>
       <r>    52.7545    -0.0010    11.9878 </r>
       <r>    52.9488     0.0117    11.9901 </r>
       <r>    53.1430     0.0188    11.9937 </r>
       <r>    53.3372     0.0115    11.9959 </r>
       <r>    53.5314     0.0201    11.9998 </r>
       <r>    53.7256     0.0014    12.0001 </r>
       <r>    53.9198    -0.0005    12.0000 </r>
       <r>    54.1140    -0.0000    12.0000 </r>
       <r>    54.3082    -0.0000    12.0000 </r>
       <r>    54.5025    -0.0000    12.0000 </r>
       <r>    54.6967    -0.0000    12.0000 </r>
       <r>    54.8909     0.0000    12.0000 </r>
       <r>    55.0851     0.0000    12.0000 </r>
       <r>    55.2793     0.0000    12.0000 </r>
       <r>    55.4735     0.0000    12.0000 </r>
       <r>    55.6677     0.0000    12.0000 </r>
       <r>    55.8620     0.0000    12.0000 </r>
       <r>    56.0562     0.0000    12.0000 </r>
      </set>
     </set>
    </array>
   </total>
  </dos>
 </calculation>
 <structure name="finalpos" >
  <crystal>
   <varray name="basis" >
    <v>      -0.00000000       1.75762175       1.75762175 </v>
    <v>       1.75762175       0.00000000       1.75762175 </v>
    <v>       1.75762175       1.75762175      -0.00000000 </v>
   </varray>
   <i name="volume">     10.85941051 </i>
   <varray name="rec_basis" >
    <v>      -0.28447531       0.28447531       0.28447531 </v>
    <v>       0.28447531      -0.28447531       0.28447531 </v>
    <v>       0.28447531       0.28447531      -0.28447531 </v>
   </varray>
  </crystal>
  <varray name="positions" >
   <v>      -0.00000000      -0.00000000      -0.00000000 </v>
  </varray>
 </structure>
</modeling>
