fcc Ni                                  
           1
     0.000000    1.760000    1.760000
     1.760000    0.000000    1.760000
     1.760000    1.760000    0.000000
   Ni
   1
Direct configuration=     1
   0.00000000  0.00000000  0.00000000
fcc Ni                                  
           1
    -0.000000    1.756527    1.756527
     1.756527    0.000000    1.756527
     1.756527    1.756527   -0.000000
   Ni
   1
Direct configuration=     2
  -0.00000000 -0.00000000 -0.00000000
fcc Ni                                  
           1
    -0.000000    1.757622    1.757622
     1.757622    0.000000    1.757622
     1.757622    1.757622   -0.000000
   Ni
   1
Direct configuration=     3
  -0.00000000 -0.00000000 -0.00000000
