bcc Fe                                  
   2.83998000000000     
    -0.500000    0.500000    0.500000
     0.500000   -0.500000    0.500000
     0.500000    0.500000   -0.500000
   Fe
     1
Direct
  0.000000  0.000000  0.000000
 
   20   20   20
  97.018      91.378      76.432      56.871      37.605      22.023      11.664      6.4120      4.6467      4.0497    
  3.8597      4.0497      4.6467      6.4120      11.664      22.023      37.605      56.871      76.432      91.378    
  91.378      89.539      77.838      60.135      41.295      25.136      13.695      7.3343      4.8937      4.1417    
  3.8300      3.8905      4.3347      5.4016      8.9405      16.951      30.106      47.498      66.475      82.703    
  76.432      77.838      70.212      56.171      39.897      25.144      14.189      7.7257      5.0050      4.1450    
  3.7452      3.6927      3.9775      4.6381      6.5163      11.645      21.227      35.038      51.259      66.475    
  56.871      60.135      56.171      46.412      33.983      22.105      12.960      7.3718      4.8951      4.0519    
  3.6158      3.4853      3.6326      4.0909      4.9699      7.5434      13.359      22.852      35.038      47.498    
  37.605      41.295      39.897      33.983      25.608      17.198      10.553      6.4384      4.5822      3.8730    
  3.4562      3.2913      3.3431      3.6268      4.1804      5.2102      7.9556      13.359      21.227      30.106    
  22.023      25.136      25.144      22.105      17.198      12.029      7.8842      5.3353      4.1837      3.6371    
  3.2827      3.1242      3.1258      3.2826      3.6378      4.2128      5.2102      7.5434      11.645      16.951    
  11.664      13.695      14.189      12.960      10.553      7.8842      5.7337      4.4363      3.8043      3.3839    
  3.1130      2.9882      2.9761      3.0611      3.2677      3.6378      4.1804      4.9699      6.5163      8.9405    
  6.4120      7.3343      7.7257      7.3718      6.4384      5.3353      4.4363      3.8639      3.4583      3.1518    
  2.9646      2.8833      2.8793      2.9359      3.0611      3.2826      3.6268      4.0909      4.6381      5.4016    
  4.6467      4.8937      5.0050      4.8951      4.5822      4.1837      3.8043      3.4583      3.1716      2.9680    
  2.8517      2.8102      2.8240      2.8793      2.9761      3.1258      3.3431      3.6326      3.9775      4.3347    
  4.0497      4.1417      4.1450      4.0519      3.8730      3.6371      3.3839      3.1518      2.9680      2.8448    
  2.7823      2.7738      2.8102      2.8833      2.9882      3.1242      3.2913      3.4853      3.6927      3.8905    
  3.8597      3.8300      3.7452      3.6158      3.4562      3.2827      3.1130      2.9646      2.8517      2.7823    
  2.7590      2.7823      2.8517      2.9646      3.1130      3.2827      3.4562      3.6158      3.7452      3.8300    
  4.0497      3.8905      3.6927      3.4853      3.2913      3.1242      2.9882      2.8833      2.8102      2.7738    
  2.7823      2.8448      2.9680      3.1518      3.3839      3.6371      3.8730      4.0519      4.1450      4.1417    
  4.6467      4.3347      3.9775      3.6326      3.3431      3.1258      2.9761      2.8793      2.8240      2.8102    
  2.8517      2.9680      3.1716      3.4583      3.8043      4.1837      4.5822      4.8951      5.0050      4.8937    
  6.4120      5.4016      4.6381      4.0909      3.6268      3.2826      3.0611      2.9359      2.8793      2.8833    
  2.9646      3.1518      3.4583      3.8639      4.4363      5.3353      6.4384      7.3718      7.7257      7.3343    
  11.664      8.9405      6.5163      4.9699      4.1804      3.6378      3.2677      3.0611      2.9761      2.9882    
  3.1130      3.3839      3.8043      4.4363      5.7337      7.8842      10.553      12.960      14.189      13.695    
  22.023      16.951      11.645      7.5434      5.2102      4.2128      3.6378      3.2826      3.1258      3.1242    
  3.2827      3.6371      4.1837      5.3353      7.8842      12.029      17.198      22.105      25.144      25.136    
  37.605      30.106      21.227      13.359      7.9556      5.2102      4.1804      3.6268      3.3431      3.2913    
  3.4562      3.8730      4.5822      6.4384      10.553      17.198      25.608      33.983      39.897      41.295    
  56.871      47.498      35.038      22.852      13.359      7.5434      4.9699      4.0909      3.6326      3.4853    
  3.6158      4.0519      4.8951      7.3718      12.960      22.105      33.983      46.412      56.171      60.135    
  76.432      66.475      51.259      35.038      21.227      11.645      6.5163      4.6381      3.9775      3.6927    
  3.7452      4.1450      5.0050      7.7257      14.189      25.144      39.897      56.171      70.212      77.838    
  91.378      82.703      66.475      47.498      30.106      16.951      8.9405      5.4016      4.3347      3.8905    
  3.8300      4.1417      4.8937      7.3343      13.695      25.136      41.295      60.135      77.838      89.539    
  91.378      89.539      77.838      60.135      41.295      25.136      13.695      7.3343      4.8937      4.1417    
  3.8300      3.8905      4.3347      5.4016      8.9405      16.951      30.106      47.498      66.475      82.703    
  89.539      91.370      82.692      66.465      47.494      30.104      16.951      8.9406      5.4024      4.3359    
  3.8908      3.8292      4.1407      4.8937      7.3350      13.696      25.137      41.300      60.143      77.845    
  77.838      82.692      77.833      64.961      48.136      31.643      18.471      9.9324      5.7854      4.4311    
  3.8890      3.7169      3.8889      4.4311      5.7852      9.9320      18.471      31.646      48.141      64.968    
  60.135      66.465      64.961      56.172      43.028      29.223      17.666      9.8476      5.8267      4.4044    
  3.8208      3.5705      3.6232      3.9915      4.7284      6.8490      12.138      21.415      34.108      48.138    
  41.295      47.494      48.136      43.028      33.985      23.791      14.907      8.7327      5.4726      4.2534    
  3.6914      3.4083      3.3790      3.5939      4.0939      5.0112      7.5685      12.993      21.415      31.643    
  25.136      30.104      31.643      29.223      23.791      17.200      11.260      7.0855      4.8810      4.0074    
  3.5155      3.2461      3.1771      3.2839      3.5994      4.1550      5.1323      7.5690      12.138      18.470    
  13.695      16.951      18.471      17.666      14.907      11.260      7.8846      5.5218      4.2904      3.7128    
  3.3171      3.0954      3.0230      3.0705      3.2504      3.6069      4.1557      5.0120      6.8493      9.9315    
  7.3343      8.9406      9.9324      9.8476      8.7327      7.0855      5.5218      4.4359      3.8326      3.4173    
  3.1247      2.9648      2.9116      2.9377      3.0416      3.2508      3.6000      4.0941      4.7279      5.7843    
  4.8937      5.4024      5.7854      5.8267      5.4726      4.8810      4.2904      3.8326      3.4583      3.1608    
  2.9632      2.8620      2.8360      2.8635      2.9379      3.0707      3.2838      3.5933      3.9905      4.4303    
  4.1417      4.3359      4.4311      4.4044      4.2534      4.0074      3.7128      3.4173      3.1608      2.9681    
  2.8475      2.7938      2.7943      2.8360      2.9116      3.0228      3.1766      3.3784      3.6229      3.8893    
  3.8300      3.8908      3.8890      3.8208      3.6914      3.5155      3.3171      3.1247      2.9632      2.8475    
  2.7823      2.7657      2.7938      2.8619      2.9646      3.0951      3.2460      3.4086      3.5712      3.7179    
  3.8905      3.8292      3.7169      3.5705      3.4083      3.2461      3.0954      2.9648      2.8620      2.7938    
  2.7657      2.7823      2.8474      2.9630      3.1246      3.3172      3.5160      3.6922      3.8216      3.8893    
  4.3347      4.1407      3.8889      3.6232      3.3790      3.1771      3.0230      2.9116      2.8360      2.7943    
  2.7938      2.8474      2.9680      3.1608      3.4175      3.7133      4.0080      4.2538      4.4043      4.4303    
  5.4016      4.8937      4.4311      3.9915      3.5939      3.2839      3.0705      2.9377      2.8635      2.8360    
  2.8619      2.9630      3.1608      3.4586      3.8332      4.2909      4.8811      5.4721      5.8257      5.7843    
  8.9405      7.3350      5.7852      4.7284      4.0939      3.5994      3.2504      3.0416      2.9379      2.9116    
  2.9646      3.1246      3.4175      3.8332      4.4363      5.5216      7.0847      8.7314      9.8462      9.9315    
  16.951      13.696      9.9320      6.8490      5.0112      4.1550      3.6069      3.2508      3.0707      3.0228    
  3.0951      3.3172      3.7133      4.2909      5.5216      7.8836      11.259      14.905      17.665      18.470    
  30.106      25.137      18.471      12.138      7.5685      5.1323      4.1557      3.6000      3.2838      3.1766    
  3.2460      3.5160      4.0080      4.8811      7.0847      11.259      17.197      23.789      29.221      31.643    
  47.498      41.300      31.646      21.415      12.993      7.5690      5.0120      4.0941      3.5933      3.3784    
  3.4086      3.6922      4.2538      5.4721      8.7314      14.905      23.789      33.982      43.027      48.138    
  66.475      60.143      48.141      34.108      21.415      12.138      6.8493      4.7279      3.9905      3.6229    
  3.5712      3.8216      4.4043      5.8257      9.8462      17.665      29.221      43.027      56.175      64.968    
  82.703      77.845      64.968      48.138      31.643      18.470      9.9315      5.7843      4.4303      3.8893    
  3.7179      3.8893      4.4303      5.7843      9.9315      18.470      31.643      48.138      64.968      77.845    
  76.432      77.838      70.212      56.171      39.897      25.144      14.189      7.7257      5.0050      4.1450    
  3.7452      3.6927      3.9775      4.6381      6.5163      11.645      21.227      35.038      51.259      66.475    
  77.838      82.692      77.833      64.961      48.136      31.643      18.471      9.9324      5.7854      4.4311    
  3.8890      3.7169      3.8889      4.4311      5.7852      9.9320      18.471      31.646      48.141      64.968    
  70.212      77.833      76.423      66.466      51.254      35.037      21.228      11.646      6.5167      4.6381    
  3.9776      3.6927      3.7452      4.1450      5.0049      7.7256      14.190      25.146      39.901      56.175    
  56.171      64.961      66.466      60.137      48.139      34.109      21.417      12.140      6.8498      4.7280    
  3.9905      3.6229      3.5712      3.8216      4.4043      5.8257      9.8465      17.666      29.222      43.027    
  39.897      48.136      51.254      48.139      39.902      29.226      18.993      11.207      6.5964      4.6440    
  3.9180      3.5149      3.3910      3.5149      3.9180      4.6440      6.5960      11.206      18.990      29.221    
  25.144      31.643      35.037      34.109      29.226      22.109      14.908      9.2670      5.8728      4.3981    
  3.7665      3.3792      3.2234      3.2610      3.5048      3.9947      4.8128      6.9086      11.206      17.665    
  14.189      18.471      21.228      21.417      18.993      14.908      10.554      7.0846      5.0044      4.0735    
  3.5606      3.2294      3.0792      3.0727      3.2041      3.5122      4.0231      4.8128      6.5960      9.8462    
  7.7257      9.9324      11.646      12.140      11.207      9.2670      7.0846      5.3340      4.2900      3.7370    
  3.3359      3.0814      2.9622      2.9446      3.0138      3.1901      3.5122      3.9947      4.6440      5.8257    
  5.0050      5.7854      6.5167      6.8498      6.5964      5.8728      5.0044      4.2900      3.8039      3.4175    
  3.1283      2.9519      2.8726      2.8634      2.9084      3.0138      3.2040      3.5048      3.9180      4.4043    
  4.1450      4.4311      4.6381      4.7280      4.6440      4.3981      4.0735      3.7370      3.4175      3.1521    
  2.9632      2.8538      2.8115      2.8189      2.8634      2.9446      3.0727      3.2610      3.5149      3.8216    
  3.7452      3.8890      3.9776      3.9905      3.9180      3.7665      3.5606      3.3359      3.1283      2.9632    
  2.8518      2.7938      2.7830      2.8116      2.8727      2.9622      3.0792      3.2234      3.3910      3.5712    
  3.6927      3.7169      3.6927      3.6229      3.5149      3.3792      3.2294      3.0814      2.9519      2.8538    
  2.7938      2.7738      2.7938      2.8538      2.9519      3.0815      3.2294      3.3792      3.5149      3.6229    
  3.9775      3.8889      3.7452      3.5712      3.3910      3.2234      3.0792      2.9622      2.8726      2.8115    
  2.7830      2.7938      2.8518      2.9632      3.1283      3.3359      3.5606      3.7666      3.9180      3.9905    
  4.6381      4.4311      4.1450      3.8216      3.5149      3.2610      3.0727      2.9446      2.8634      2.8189    
  2.8116      2.8538      2.9632      3.1521      3.4176      3.7373      4.0737      4.3983      4.6440      4.7279    
  6.5163      5.7852      5.0049      4.4043      3.9180      3.5048      3.2041      3.0138      2.9084      2.8634    
  2.8727      2.9519      3.1283      3.4176      3.8043      4.2905      5.0049      5.8729      6.5960      6.8493    
  11.645      9.9320      7.7256      5.8257      4.6440      3.9947      3.5122      3.1901      3.0138      2.9446    
  2.9622      3.0815      3.3359      3.7373      4.2905      5.3346      7.0847      9.2661      11.206      12.138    
  21.227      18.471      14.190      9.8465      6.5960      4.8128      4.0231      3.5122      3.2040      3.0727    
  3.0792      3.2294      3.5606      4.0737      5.0049      7.0847      10.553      14.905      18.990      21.415    
  35.038      31.646      25.146      17.666      11.206      6.9086      4.8128      3.9947      3.5048      3.2610    
  3.2234      3.3792      3.7666      4.3983      5.8729      9.2661      14.905      22.105      29.222      34.108    
  51.259      48.141      39.901      29.222      18.990      11.206      6.5960      4.6440      3.9180      3.5149    
  3.3910      3.5149      3.9180      4.6440      6.5960      11.206      18.990      29.222      39.901      48.141    
  66.475      64.968      56.175      43.027      29.221      17.665      9.8462      5.8257      4.4043      3.8216    
  3.5712      3.6229      3.9905      4.7279      6.8493      12.138      21.415      34.108      48.141      60.143    
  56.871      60.135      56.171      46.412      33.983      22.105      12.960      7.3718      4.8951      4.0519    
  3.6158      3.4853      3.6326      4.0909      4.9699      7.5434      13.359      22.852      35.038      47.498    
  60.135      66.465      64.961      56.172      43.028      29.223      17.666      9.8476      5.8267      4.4044    
  3.8208      3.5705      3.6232      3.9915      4.7284      6.8490      12.138      21.415      34.108      48.138    
  56.171      64.961      66.466      60.137      48.139      34.109      21.417      12.140      6.8498      4.7280    
  3.9905      3.6229      3.5712      3.8216      4.4043      5.8257      9.8465      17.666      29.222      43.027    
  46.412      56.172      60.137      56.873      47.500      35.041      22.855      13.361      7.5436      4.9689    
  4.0901      3.6329      3.4861      3.6161      4.0512      4.8941      7.3714      12.959      22.105      33.982    
  33.983      43.028      48.139      47.500      41.302      31.649      21.418      12.994      7.5683      5.0108    
  4.0937      3.5939      3.3790      3.4083      3.6914      4.2534      5.4723      8.7319      14.905      23.789    
  22.105      29.223      34.109      35.041      31.649      25.149      17.667      11.205      6.9070      4.8116    
  3.9947      3.5054      3.2612      3.2229      3.3787      3.7668      4.3990      5.8734      9.2661      14.905    
  12.960      17.666      21.417      22.855      21.418      17.667      12.959      8.7300      5.8714      4.4556    
  3.8103      3.3764      3.1423      3.0727      3.1424      3.3765      3.8105      4.4565      5.8729      8.7314    
  7.3718      9.8476      12.140      13.361      12.994      11.205      8.7300      6.4358      4.8795      4.0735    
  3.5765      3.2257      3.0309      2.9597      2.9842      3.1116      3.3784      3.8100      4.3983      5.4721    
  4.8951      5.8267      6.8498      7.5436      7.5683      6.9070      5.8714      4.8795      4.1828      3.7131    
  3.3360      3.0771      2.9342      2.8798      2.8891      2.9591      3.1112      3.3759      3.7666      4.2538    
  4.0519      4.4044      4.7280      4.9689      5.0108      4.8116      4.4556      4.0735      3.7131      3.3844    
  3.1249      2.9519      2.8593      2.8280      2.8398      2.8890      2.9840      3.1424      3.3792      3.6922    
  3.6158      3.8208      3.9905      4.0901      4.0937      3.9947      3.8103      3.5765      3.3360      3.1249    
  2.9648      2.8619      2.8115      2.8035      2.8280      2.8799      2.9600      3.0731      3.2234      3.4086    
  3.4853      3.5705      3.6229      3.6329      3.5939      3.5054      3.3764      3.2257      3.0771      2.9519    
  2.8619      2.8101      2.7943      2.8116      2.8595      2.9345      3.0311      3.1424      3.2610      3.3784    
  3.6326      3.6232      3.5712      3.4861      3.3790      3.2612      3.1423      3.0309      2.9342      2.8593    
  2.8115      2.7943      2.8102      2.8620      2.9519      3.0771      3.2254      3.3759      3.5048      3.5933    
  4.0909      3.9915      3.8216      3.6161      3.4083      3.2229      3.0727      2.9597      2.8798      2.8280    
  2.8035      2.8116      2.8620      2.9647      3.1246      3.3355      3.5760      3.8100      3.9947      4.0941    
  4.9699      4.7284      4.4043      4.0512      3.6914      3.3787      3.1424      2.9842      2.8891      2.8398    
  2.8280      2.8595      2.9519      3.1246      3.3839      3.7128      4.0738      4.4565      4.8128      5.0120    
  7.5434      6.8490      5.8257      4.8941      4.2534      3.7668      3.3765      3.1116      2.9591      2.8890    
  2.8799      2.9345      3.0771      3.3355      3.7128      4.1834      4.8811      5.8734      6.9086      7.5690    
  13.359      12.138      9.8465      7.3714      5.4723      4.3990      3.8105      3.3784      3.1112      2.9840    
  2.9600      3.0311      3.2254      3.5760      4.0738      4.8811      6.4382      8.7319      11.206      12.993    
  22.852      21.415      17.666      12.959      8.7319      5.8734      4.4565      3.8100      3.3759      3.1424    
  3.0731      3.1424      3.3759      3.8100      4.4565      5.8734      8.7319      12.959      17.666      21.415    
  35.038      34.108      29.222      22.105      14.905      9.2661      5.8729      4.3983      3.7666      3.3792    
  3.2234      3.2610      3.5048      3.9947      4.8128      6.9086      11.206      17.666      25.146      31.646    
  47.498      48.138      43.027      33.982      23.789      14.905      8.7314      5.4721      4.2538      3.6922    
  3.4086      3.3784      3.5933      4.0941      5.0120      7.5690      12.993      21.415      31.646      41.300    
  37.605      41.295      39.897      33.983      25.608      17.198      10.553      6.4384      4.5822      3.8730    
  3.4562      3.2913      3.3431      3.6268      4.1804      5.2102      7.9556      13.359      21.227      30.106    
  41.295      47.494      48.136      43.028      33.985      23.791      14.907      8.7327      5.4726      4.2534    
  3.6914      3.4083      3.3790      3.5939      4.0939      5.0112      7.5685      12.993      21.415      31.643    
  39.897      48.136      51.254      48.139      39.902      29.226      18.993      11.207      6.5964      4.6440    
  3.9180      3.5149      3.3910      3.5149      3.9180      4.6440      6.5960      11.206      18.990      29.221    
  33.983      43.028      48.139      47.500      41.302      31.649      21.418      12.994      7.5683      5.0108    
  4.0937      3.5939      3.3790      3.4083      3.6914      4.2534      5.4723      8.7319      14.905      23.789    
  25.608      33.985      39.902      41.302      37.612      30.111      21.229      13.358      7.9543      5.2092    
  4.1799      3.6267      3.3431      3.2913      3.4562      3.8730      4.5821      6.4382      10.553      17.197    
  17.198      23.791      29.226      31.649      30.111      25.140      18.471      12.136      7.5660      5.1307    
  4.1551      3.5999      3.2838      3.1766      3.2460      3.5160      4.0080      4.8811      7.0847      11.259    
  10.553      14.907      18.993      21.418      21.229      18.471      14.187      9.8427      6.5930      4.8113    
  4.0227      3.5122      3.2041      3.0727      3.0792      3.2294      3.5606      4.0738      5.0049      7.0847    
  6.4384      8.7327      11.207      12.994      13.358      12.136      9.8427      7.3677      5.4700      4.3982    
  3.8106      3.3786      3.1113      2.9840      2.9600      3.0311      3.2254      3.5760      4.0737      4.8811    
  4.5822      5.4726      6.5964      7.5683      7.9543      7.5660      6.5930      5.4700      4.5811      4.0081    
  3.5611      3.2258      3.0170      2.9127      2.8823      2.9127      3.0169      3.2254      3.5606      4.0080    
  3.8730      4.2534      4.6440      5.0108      5.2092      5.1307      4.8113      4.3982      4.0081      3.6380    
  3.3177      3.0814      2.9343      2.8601      2.8373      2.8537      2.9127      3.0311      3.2294      3.5160    
  3.4562      3.6914      3.9180      4.0937      4.1799      4.1551      4.0227      3.8106      3.5611      3.3177    
  3.1134      2.9647      2.8726      2.8280      2.8189      2.8373      2.8823      2.9600      3.0792      3.2460    
  3.2913      3.4083      3.5149      3.5939      3.6267      3.5999      3.5122      3.3786      3.2258      3.0814    
  2.9647      2.8831      2.8359      2.8189      2.8280      2.8601      2.9127      2.9840      3.0727      3.1766    
  3.3431      3.3790      3.3910      3.3790      3.3431      3.2838      3.2041      3.1113      3.0170      2.9343    
  2.8726      2.8359      2.8239      2.8360      2.8726      2.9342      3.0169      3.1112      3.2040      3.2838    
  3.6268      3.5939      3.5149      3.4083      3.2913      3.1766      3.0727      2.9840      2.9127      2.8601    
  2.8280      2.8189      2.8360      2.8831      2.9645      3.0811      3.2254      3.3784      3.5122      3.6000    
  4.1804      4.0939      3.9180      3.6914      3.4562      3.2460      3.0792      2.9600      2.8823      2.8373    
  2.8189      2.8280      2.8726      2.9645      3.1129      3.3171      3.5606      3.8105      4.0231      4.1557    
  5.2102      5.0112      4.6440      4.2534      3.8730      3.5160      3.2294      3.0311      2.9127      2.8537    
  2.8373      2.8601      2.9342      3.0811      3.3171      3.6373      4.0080      4.3990      4.8128      5.1323    
  7.9556      7.5685      6.5960      5.4723      4.5821      4.0080      3.5606      3.2254      3.0169      2.9127    
  2.8823      2.9127      3.0169      3.2254      3.5606      4.0080      4.5821      5.4723      6.5960      7.5685    
  13.359      12.993      11.206      8.7319      6.4382      4.8811      4.0738      3.5760      3.2254      3.0311    
  2.9600      2.9840      3.1112      3.3784      3.8105      4.3990      5.4723      7.3714      9.8465      12.138    
  21.227      21.415      18.990      14.905      10.553      7.0847      5.0049      4.0737      3.5606      3.2294    
  3.0792      3.0727      3.2040      3.5122      4.0231      4.8128      6.5960      9.8465      14.190      18.471    
  30.106      31.643      29.221      23.789      17.197      11.259      7.0847      4.8811      4.0080      3.5160    
  3.2460      3.1766      3.2838      3.6000      4.1557      5.1323      7.5685      12.138      18.471      25.137    
  22.023      25.136      25.144      22.105      17.198      12.029      7.8842      5.3353      4.1837      3.6371    
  3.2827      3.1242      3.1258      3.2826      3.6378      4.2128      5.2102      7.5434      11.645      16.951    
  25.136      30.104      31.643      29.223      23.791      17.200      11.260      7.0855      4.8810      4.0074    
  3.5155      3.2461      3.1771      3.2839      3.5994      4.1550      5.1323      7.5690      12.138      18.470    
  25.144      31.643      35.037      34.109      29.226      22.109      14.908      9.2670      5.8728      4.3981    
  3.7665      3.3792      3.2234      3.2610      3.5048      3.9947      4.8128      6.9086      11.206      17.665    
  22.105      29.223      34.109      35.041      31.649      25.149      17.667      11.205      6.9070      4.8116    
  3.9947      3.5054      3.2612      3.2229      3.3787      3.7668      4.3990      5.8734      9.2661      14.905    
  17.198      23.791      29.226      31.649      30.111      25.140      18.471      12.136      7.5660      5.1307    
  4.1551      3.5999      3.2838      3.1766      3.2460      3.5160      4.0080      4.8811      7.0847      11.259    
  12.029      17.200      22.109      25.149      25.140      22.024      16.948      11.640      7.5395      5.2087    
  4.2131      3.6382      3.2823      3.1254      3.1243      3.2832      3.6373      4.1834      5.3346      7.8836    
  7.8842      11.260      14.908      17.667      18.471      16.948      13.690      9.9261      6.8456      5.0107    
  4.1557      3.6072      3.2505      3.0705      3.0230      3.0954      3.3171      3.7128      4.2905      5.5216    
  5.3353      7.0855      9.2670      11.205      12.136      11.640      9.9261      7.7213      5.8244      4.6450    
  3.9960      3.5127      3.1900      3.0138      2.9449      2.9623      3.0811      3.3355      3.7373      4.2909    
  4.1837      4.8810      5.8728      6.9070      7.5660      7.5395      6.8456      5.8244      4.8951      4.2553    
  3.7683      3.3770      3.1115      2.9592      2.8891      2.8798      2.9342      3.0771      3.3359      3.7133    
  3.6371      4.0074      4.3981      4.8116      5.1307      5.2087      5.0107      4.6450      4.2553      3.8749    
  3.5171      3.2296      3.0311      2.9127      2.8538      2.8373      2.8601      2.9345      3.0815      3.3172    
  3.2827      3.5155      3.7665      3.9947      4.1551      4.2131      4.1557      3.9960      3.7683      3.5171    
  3.2836      3.0953      2.9621      2.8798      2.8374      2.8245      2.8373      2.8799      2.9622      3.0951    
  3.1242      3.2461      3.3792      3.5054      3.5999      3.6382      3.6072      3.5127      3.3770      3.2296    
  3.0953      2.9880      2.9114      2.8634      2.8399      2.8373      2.8537      2.8890      2.9446      3.0228    
  3.1258      3.1771      3.2234      3.2612      3.2838      3.2823      3.2505      3.1900      3.1115      3.0311    
  2.9621      2.9114      2.8792      2.8634      2.8634      2.8798      2.9127      2.9591      3.0138      3.0707    
  3.2826      3.2839      3.2610      3.2229      3.1766      3.1254      3.0705      3.0138      2.9592      2.9127    
  2.8798      2.8634      2.8634      2.8793      2.9116      2.9623      3.0311      3.1116      3.1901      3.2508    
  3.6378      3.5994      3.5048      3.3787      3.2460      3.1243      3.0230      2.9449      2.8891      2.8538    
  2.8374      2.8399      2.8634      2.9116      2.9882      3.0954      3.2294      3.3765      3.5122      3.6069    
  4.2128      4.1550      3.9947      3.7668      3.5160      3.2832      3.0954      2.9623      2.8798      2.8373    
  2.8245      2.8373      2.8798      2.9623      3.0954      3.2832      3.5160      3.7668      3.9947      4.1550    
  5.2102      5.1323      4.8128      4.3990      4.0080      3.6373      3.3171      3.0811      2.9342      2.8601    
  2.8373      2.8537      2.9127      3.0311      3.2294      3.5160      3.8730      4.2534      4.6440      5.0112    
  7.5434      7.5690      6.9086      5.8734      4.8811      4.1834      3.7128      3.3355      3.0771      2.9345    
  2.8799      2.8890      2.9591      3.1116      3.3765      3.7668      4.2534      4.8941      5.8257      6.8490    
  11.645      12.138      11.206      9.2661      7.0847      5.3346      4.2905      3.7373      3.3359      3.0815    
  2.9622      2.9446      3.0138      3.1901      3.5122      3.9947      4.6440      5.8257      7.7256      9.9320    
  16.951      18.470      17.665      14.905      11.259      7.8836      5.5216      4.2909      3.7133      3.3172    
  3.0951      3.0228      3.0707      3.2508      3.6069      4.1550      5.0112      6.8490      9.9320      13.696    
  11.664      13.695      14.189      12.960      10.553      7.8842      5.7337      4.4363      3.8043      3.3839    
  3.1130      2.9882      2.9761      3.0611      3.2677      3.6378      4.1804      4.9699      6.5163      8.9405    
  13.695      16.951      18.471      17.666      14.907      11.260      7.8846      5.5218      4.2904      3.7128    
  3.3171      3.0954      3.0230      3.0705      3.2504      3.6069      4.1557      5.0120      6.8493      9.9315    
  14.189      18.471      21.228      21.417      18.993      14.908      10.554      7.0846      5.0044      4.0735    