   1   1   0   0
  0.1145291E+02  0.2459495E-09  0.2459495E-09  0.2459495E-09  0.5000000E-15
  1.000000000000000E-004
  CAR 
 bcc Fe                                  
     47.14249277     -4.81320795  301      5.76459862      1.00000000
     -4.813  0.0000E+00  0.0000E+00  0.0000E+00  0.0000E+00
     -4.640  0.0000E+00  0.0000E+00  0.0000E+00  0.0000E+00
     -4.467  0.0000E+00  0.0000E+00  0.0000E+00  0.0000E+00
     -4.294  0.0000E+00  0.0000E+00  0.0000E+00  0.0000E+00
     -4.120 -0.4698E-31  0.0000E+00 -0.8137E-32  0.0000E+00
     -3.947 -0.3757E-25 -0.6536E-32 -0.6506E-26 -0.1132E-32
     -3.774 -0.6615E-20 -0.6424E-26 -0.1146E-20 -0.1113E-26
     -3.601 -0.2479E-15 -0.1391E-20 -0.4293E-16 -0.2409E-21
     -3.428 -0.2065E-11 -0.6419E-16 -0.3576E-12 -0.1112E-16
     -3.255 -0.3684E-08 -0.6591E-12 -0.6384E-09 -0.1142E-12
     -3.081 -0.1371E-05 -0.1453E-08 -0.2380E-06 -0.2518E-09
     -2.908 -0.9873E-04 -0.6714E-06 -0.1734E-04 -0.1165E-06
     -2.735 -0.9789E-03 -0.6103E-04 -0.1869E-03 -0.1069E-04
     -2.562  0.4612E-02 -0.8413E-03  0.6118E-03 -0.1564E-03
     -2.389  0.2166E-01  0.2660E-02  0.4363E-02  0.3042E-03
     -2.215  0.1080E-01  0.2059E-01  0.6233E-02  0.3871E-02
     -2.042  0.2204E-01  0.1238E-01  0.1005E-01  0.6014E-02
     -1.869  0.1955E-01  0.1874E-01  0.1344E-01  0.9259E-02
     -1.696  0.5463E-01  0.2165E-01  0.2290E-01  0.1301E-01
     -1.523  0.8188E-01  0.3920E-01  0.3708E-01  0.1980E-01
     -1.349  0.7591E-02  0.8955E-01  0.3839E-01  0.3531E-01
     -1.176 -0.8188E-02  0.1959E-01  0.3697E-01  0.3870E-01
     -1.003  0.4562E-01 -0.8462E-02  0.4487E-01  0.3723E-01
     -0.830  0.1092E+00  0.1609E-01  0.6378E-01  0.4002E-01
     -0.657  0.6486E-01  0.1054E+00  0.7501E-01  0.5828E-01
     -0.484  0.8845E-01  0.6798E-01  0.9033E-01  0.7005E-01
     -0.310  0.9208E-01  0.7606E-01  0.1063E+00  0.8323E-01
     -0.137  0.5775E-01  0.6881E-01  0.1163E+00  0.9514E-01
      0.036 -0.1048E-01  0.8709E-01  0.1145E+00  0.1102E+00
      0.209  0.4912E-01  0.3706E-01  0.1230E+00  0.1166E+00
      0.382  0.2258E+00 -0.1243E-01  0.1621E+00  0.1145E+00
      0.556  0.1702E+00  0.4990E-01  0.1916E+00  0.1231E+00
      0.729  0.2399E+00  0.1890E+00  0.2331E+00  0.1559E+00
      0.902  0.2559E+00  0.1310E+00  0.2774E+00  0.1785E+00
      1.075  0.2870E+00  0.8959E-01  0.3271E+00  0.1941E+00
      1.248  0.6667E+00  0.1739E+00  0.4426E+00  0.2242E+00
      1.421  0.8724E+00  0.1022E+00  0.5937E+00  0.2419E+00
      1.595  0.7534E+00  0.8319E-01  0.7242E+00  0.2563E+00
      1.768  0.9599E+00  0.3427E-01  0.8904E+00  0.2622E+00
      1.941  0.6789E+00  0.9455E-01  0.1008E+01  0.2786E+00
      2.114  0.4287E+00  0.3975E+00  0.1082E+01  0.3474E+00
      2.287  0.5853E+00  0.4433E+00  0.1184E+01  0.4242E+00
      2.461  0.1364E+01  0.3003E+00  0.1420E+01  0.4762E+00
      2.634  0.1494E+01  0.2308E+00  0.1679E+01  0.5162E+00
      2.807  0.8381E+00  0.4050E+00  0.1824E+01  0.5863E+00
      2.980  0.1116E+01  0.3903E+00  0.2017E+01  0.6539E+00
      3.153  0.1735E+01  0.5169E+00  0.2318E+01  0.7434E+00
      3.327  0.1342E+01  0.8539E+00  0.2550E+01  0.8913E+00
      3.500  0.6784E+00  0.5009E+00  0.2668E+01  0.9781E+00
      3.673  0.3314E+00  0.2555E+00  0.2725E+01  0.1022E+01
      3.846  0.6896E+00  0.3698E+00  0.2844E+01  0.1086E+01
      4.019  0.6924E+00  0.4618E+00  0.2964E+01  0.1166E+01
      4.192  0.3240E+00  0.9925E+00  0.3020E+01  0.1338E+01
      4.366  0.9413E+00  0.1529E+01  0.3183E+01  0.1603E+01
      4.539  0.1652E+01  0.1093E+01  0.3470E+01  0.1792E+01
      4.712  0.1978E+01  0.1072E+01  0.3812E+01  0.1978E+01
      4.885  0.2378E+01  0.1185E+01  0.4224E+01  0.2183E+01
      5.058  0.1958E+01  0.1252E+01  0.4563E+01  0.2400E+01
      5.232  0.8583E+00  0.1196E+01  0.4712E+01  0.2607E+01
      5.405  0.9208E+00  0.8882E+00  0.4871E+01  0.2761E+01
      5.578  0.9856E+00  0.3276E+00  0.5042E+01  0.2818E+01
      5.751  0.6564E+00  0.9296E-01  0.5156E+01  0.2834E+01
      5.924  0.4351E+00  0.4862E+00  0.5231E+01  0.2918E+01
      6.097  0.2633E+00  0.4711E+00  0.5276E+01  0.3000E+01
      6.271  0.2175E+00  0.2102E+00  0.5314E+01  0.3036E+01
      6.444  0.1551E+00  0.2232E+00  0.5341E+01  0.3075E+01
      6.617  0.9385E-01  0.4133E+00  0.5357E+01  0.3146E+01
      6.790  0.1412E+00  0.9286E+00  0.5382E+01  0.3307E+01
      6.963  0.3326E+00  0.8983E+00  0.5439E+01  0.3463E+01
      7.137  0.1954E+00  0.9823E+00  0.5473E+01  0.3633E+01
      7.310  0.8774E-01  0.1377E+01  0.5488E+01  0.3871E+01
      7.483  0.1214E+00  0.1363E+01  0.5509E+01  0.4107E+01
      7.656  0.9745E-01  0.1906E+01  0.5526E+01  0.4438E+01
      7.829 -0.8208E-02  0.2281E+01  0.5525E+01  0.4833E+01
      8.003  0.2453E-01  0.1387E+01  0.5529E+01  0.5073E+01
      8.176  0.2591E+00  0.7146E+00  0.5574E+01  0.5197E+01
      8.349  0.2475E+00  0.4374E+00  0.5617E+01  0.5272E+01
      8.522  0.7418E-01  0.3810E+00  0.5630E+01  0.5338E+01
      8.695  0.1964E+00  0.1535E+00  0.5664E+01  0.5365E+01
      8.868  0.1718E+00  0.3124E+00  0.5693E+01  0.5419E+01
      9.042  0.1097E+00  0.3145E+00  0.5712E+01  0.5473E+01
      9.215  0.3311E-01  0.1837E+00  0.5718E+01  0.5505E+01
      9.388  0.2485E-01  0.1175E+00  0.5722E+01  0.5526E+01
      9.561  0.1626E+00  0.8756E-01  0.5751E+01  0.5541E+01
      9.734  0.1465E+00  0.2029E+00  0.5776E+01  0.5576E+01
      9.908  0.1077E+00  0.2209E+00  0.5795E+01  0.5614E+01
     10.081  0.1638E+00  0.1164E+00  0.5823E+01  0.5634E+01
     10.254  0.1170E+00  0.1681E+00  0.5843E+01  0.5663E+01
     10.427  0.9589E-02  0.1051E+00  0.5845E+01  0.5682E+01
     10.600  0.3187E-01  0.1562E+00  0.5850E+01  0.5709E+01
     10.774  0.2559E-01  0.7982E-01  0.5855E+01  0.5723E+01
     10.947  0.4358E-01  0.1049E+00  0.5862E+01  0.5741E+01
     11.120  0.1615E+00  0.2741E+00  0.5890E+01  0.5788E+01
     11.293  0.1007E+00  0.2183E+00  0.5908E+01  0.5826E+01
     11.466  0.8579E-01  0.1042E+00  0.5923E+01  0.5844E+01
     11.639  0.3471E-01  0.3037E-02  0.5929E+01  0.5845E+01
     11.813 -0.7683E-02  0.2893E-01  0.5927E+01  0.5850E+01
     11.986  0.4162E-01  0.2959E-01  0.5935E+01  0.5855E+01
     12.159  0.8419E-01  0.2742E-01  0.5949E+01  0.5859E+01
     12.332  0.7005E-01  0.1613E+00  0.5961E+01  0.5887E+01
     12.505  0.1264E+00  0.1054E+00  0.5983E+01  0.5906E+01
     12.679  0.5341E-01  0.7226E-01  0.5992E+01  0.5918E+01
     12.852 -0.7248E-02  0.9519E-01  0.5991E+01  0.5935E+01
     13.025  0.5633E-01  0.8449E-01  0.6001E+01  0.5949E+01
     13.198  0.1426E+00  0.2786E-01  0.6026E+01  0.5954E+01
     13.371  0.2045E+00  0.7938E-01  0.6061E+01  0.5968E+01
     13.544  0.1746E+00  0.5851E-01  0.6091E+01  0.5978E+01
     13.718  0.9180E-01  0.5554E-01  0.6107E+01  0.5988E+01
     13.891  0.2479E+00  0.2846E-01  0.6150E+01  0.5993E+01
     14.064  0.3371E+00 -0.3611E-02  0.6208E+01  0.5992E+01
     14.237  0.2236E+00 -0.1258E-01  0.6247E+01  0.5990E+01
     14.410  0.1302E+00  0.4919E-01  0.6270E+01  0.5998E+01
     14.584  0.2003E+00  0.2937E+00  0.6304E+01  0.6049E+01
     14.757  0.2471E+00  0.2226E+00  0.6347E+01  0.6088E+01
     14.930  0.5529E-01  0.1223E+00  0.6357E+01  0.6109E+01
     15.103  0.4768E-01  0.3099E+00  0.6365E+01  0.6163E+01
     15.276  0.1532E+00  0.4030E+00  0.6392E+01  0.6232E+01
     15.450  0.2173E+00  0.2899E+00  0.6429E+01  0.6283E+01
     15.623  0.1481E+00  0.2290E+00  0.6455E+01  0.6322E+01
     15.796  0.1670E+00  0.1842E+00  0.6484E+01  0.6354E+01
     15.969  0.3840E+00  0.2478E-01  0.6550E+01  0.6358E+01
     16.142  0.4308E+00  0.5114E-01  0.6625E+01  0.6367E+01
     16.315  0.1457E+00  0.1942E+00  0.6650E+01  0.6401E+01
     16.489 -0.6289E-02  0.3191E+00  0.6649E+01  0.6456E+01
     16.662  0.4719E-01  0.2068E+00  0.6657E+01  0.6492E+01
     16.835  0.1530E+00  0.2384E+00  0.6684E+01  0.6533E+01
     17.008  0.2237E+00  0.3559E+00  0.6722E+01  0.6595E+01
     17.181  0.1203E+00  0.2951E+00  0.6743E+01  0.6646E+01
     17.355  0.2643E+00  0.6642E-01  0.6789E+01  0.6657E+01
     17.528  0.4959E+00  0.7326E-01  0.6875E+01  0.6670E+01
     17.701  0.2972E+00  0.1149E+00  0.6926E+01  0.6690E+01
     17.874  0.7489E-01  0.2214E+00  0.6939E+01  0.6728E+01
     18.047 -0.5830E-02  0.2306E+00  0.6938E+01  0.6768E+01
     18.220 -0.1239E-01  0.3367E+00  0.6936E+01  0.6827E+01
     18.394  0.2714E-01  0.2501E+00  0.6941E+01  0.6870E+01
     18.567  0.2326E+00  0.2636E+00  0.6981E+01  0.6916E+01
     18.740  0.3053E+00  0.1307E+00  0.7034E+01  0.6938E+01
     18.913  0.2250E+00 -0.2705E-02  0.7073E+01  0.6938E+01
     19.086  0.7227E-01 -0.2399E-02  0.7086E+01  0.6937E+01
     19.260  0.2154E+00  0.1614E+00  0.7123E+01  0.6965E+01
     19.433  0.2369E+00  0.3382E+00  0.7164E+01  0.7024E+01
     19.606  0.2605E+00  0.2823E+00  0.7209E+01  0.7073E+01
     19.779  0.2889E+00  0.5814E-01  0.7259E+01  0.7083E+01
     19.952  0.3078E+00  0.1287E+00  0.7312E+01  0.7105E+01
     20.126  0.1714E+00  0.2593E+00  0.7342E+01  0.7150E+01
     20.299  0.4560E-01  0.2866E+00  0.7350E+01  0.7200E+01
     20.472 -0.5932E-02  0.3940E+00  0.7349E+01  0.7268E+01
     20.645  0.1665E+00  0.2594E+00  0.7378E+01  0.7313E+01
     20.818  0.3096E+00  0.1059E+00  0.7431E+01  0.7331E+01
     20.991  0.1547E+00  0.7677E-01  0.7458E+01  0.7345E+01
     21.165  0.5694E-01  0.5859E-01  0.7468E+01  0.7355E+01
     21.338  0.2884E-01  0.2038E+00  0.7473E+01  0.7390E+01
     21.511  0.2855E+00  0.2839E+00  0.7522E+01  0.7439E+01
     21.684  0.3047E+00  0.1675E+00  0.7575E+01  0.7468E+01
     21.857  0.3794E-01  0.9384E-02  0.7582E+01  0.7470E+01
     22.031  0.3790E-01  0.1190E+00  0.7588E+01  0.7490E+01
     22.204  0.1681E+00  0.2721E+00  0.7617E+01  0.7537E+01
     22.377  0.2042E+00  0.1964E+00  0.7653E+01  0.7571E+01
     22.550  0.1809E+00  0.4635E-01  0.7684E+01  0.7580E+01
     22.723  0.3005E+00  0.3691E-01  0.7736E+01  0.7586E+01
     22.896  0.3145E+00  0.1238E+00  0.7791E+01  0.7607E+01
     23.070  0.2277E+00  0.2730E+00  0.7830E+01  0.7655E+01
     23.243  0.3984E+00  0.3772E+00  0.7899E+01  0.7720E+01
     23.416  0.3653E+00  0.3135E+00  0.7962E+01  0.7774E+01
     23.589  0.1683E+00  0.2664E+00  0.7992E+01  0.7820E+01
     23.762  0.1092E+00  0.3412E+00  0.8010E+01  0.7879E+01
     23.936  0.1776E+00  0.4189E+00  0.8041E+01  0.7952E+01
     24.109  0.3754E+00  0.2437E+00  0.8106E+01  0.7994E+01
     24.282  0.4289E+00  0.2358E+00  0.8181E+01  0.8035E+01
     24.455  0.3126E+00  0.1667E+00  0.8235E+01  0.8064E+01
     24.628  0.1266E+00  0.2104E+00  0.8257E+01  0.8100E+01
     24.802 -0.1058E-01  0.4115E+00  0.8255E+01  0.8172E+01
     24.975  0.1499E+00  0.3314E+00  0.8281E+01  0.8229E+01
     25.148  0.3031E+00  0.2284E+00  0.8333E+01  0.8269E+01
     25.321  0.2555E+00  0.6956E-01  0.8377E+01  0.8281E+01
     25.494  0.2079E+00  0.3247E-01  0.8413E+01  0.8286E+01
     25.667  0.2306E+00  0.1268E+00  0.8453E+01  0.8308E+01
     25.841  0.4138E+00  0.3489E+00  0.8525E+01  0.8369E+01
     26.014  0.1923E+00  0.3781E+00  0.8558E+01  0.8434E+01
     26.187  0.2924E+00  0.2927E+00  0.8609E+01  0.8485E+01
     26.360  0.4852E+00  0.2566E+00  0.8693E+01  0.8529E+01
     26.533  0.2084E+00  0.2779E+00  0.8729E+01  0.8577E+01
     26.707  0.3136E+00  0.4888E+00  0.8783E+01  0.8662E+01
     26.880  0.3523E+00  0.3109E+00  0.8844E+01  0.8716E+01
     27.053  0.7738E-01  0.1583E+00  0.8858E+01  0.8743E+01
     27.226  0.4229E-03  0.2527E+00  0.8858E+01  0.8787E+01
     27.399  0.7358E-01  0.2537E+00  0.8871E+01  0.8831E+01
     27.573  0.1072E+00  0.1189E+00  0.8889E+01  0.8852E+01
     27.746  0.1375E+00  0.9574E-03  0.8913E+01  0.8852E+01
     27.919  0.3327E+00  0.6699E-01  0.8971E+01  0.8863E+01
     28.092  0.3078E+00  0.1731E+00  0.9024E+01  0.8893E+01
     28.265  0.2160E+00  0.3349E+00  0.9061E+01  0.8951E+01
     28.438  0.7563E-02  0.3387E+00  0.9063E+01  0.9010E+01
     28.612  0.9154E-03  0.1381E+00  0.9063E+01  0.9034E+01
     28.785  0.1179E+00  0.9683E-01  0.9083E+01  0.9051E+01
     28.958  0.1701E+00  0.1022E+00  0.9113E+01  0.9068E+01
     29.131  0.2516E+00  0.1463E+00  0.9156E+01  0.9094E+01
     29.304  0.2578E+00  0.9365E-01  0.9201E+01  0.9110E+01
     29.478  0.1005E+00  0.8677E-01  0.9218E+01  0.9125E+01
     29.651  0.1740E+00  0.2586E+00  0.9248E+01  0.9170E+01
     29.824  0.2068E+00  0.2843E+00  0.9284E+01  0.9219E+01
     29.997  0.9540E-01  0.2334E+00  0.9301E+01  0.9259E+01
     30.170  0.1676E+00  0.4789E-01  0.9330E+01  0.9268E+01
     30.343  0.2354E+00  0.8716E-01  0.9371E+01  0.9283E+01
     30.517  0.5389E+00  0.1197E+00  0.9464E+01  0.9304E+01
     30.690  0.5961E+00  0.2327E+00  0.9567E+01  0.9344E+01
     30.863  0.3143E+00  0.3369E+00  0.9622E+01  0.9402E+01
     31.036  0.1894E+00  0.6567E+00  0.9654E+01  0.9516E+01
     31.209  0.2366E+00  0.7035E+00  0.9695E+01  0.9638E+01
     31.383  0.1155E+00  0.3021E+00  0.9715E+01  0.9690E+01
     31.556  0.1738E+00  0.9338E-01  0.9745E+01  0.9706E+01
     31.729  0.1382E+00 -0.3991E-02  0.9769E+01  0.9706E+01
     31.902  0.5112E-01  0.1937E-01  0.9778E+01  0.9709E+01
     32.075  0.1373E-01  0.1543E+00  0.9781E+01  0.9736E+01
     32.249  0.5396E-01  0.1799E+00  0.9790E+01  0.9767E+01
     32.422  0.6096E-01  0.1308E+00  0.9800E+01  0.9789E+01
     32.595  0.1322E+00  0.3386E-01  0.9823E+01  0.9795E+01
     32.768  0.1599E+00  0.6325E-01  0.9851E+01  0.9806E+01
     32.941  0.3163E+00  0.1206E+00  0.9906E+01  0.9827E+01
     33.114  0.5378E+00  0.4081E+00  0.9999E+01  0.9898E+01
     33.288  0.5011E+00  0.3719E+00  0.1009E+02  0.9962E+01
     33.461  0.2242E+00  0.3186E-01  0.1012E+02  0.9968E+01
     33.634  0.2206E+00  0.1944E+00  0.1016E+02  0.1000E+02
     33.807  0.6685E+00  0.3757E+00  0.1028E+02  0.1007E+02
     33.980  0.4741E+00  0.2073E+00  0.1036E+02  0.1010E+02
     34.154  0.8001E-01  0.5643E+00  0.1037E+02  0.1020E+02
     34.327  0.1016E+00  0.6752E+00  0.1039E+02  0.1032E+02
     34.500  0.2258E+00  0.2381E+00  0.1043E+02  0.1036E+02
     34.673  0.2290E+00  0.1891E+00  0.1047E+02  0.1039E+02
     34.846  0.2797E+00  0.1175E+00  0.1052E+02  0.1041E+02
     35.019  0.3718E+00  0.7907E-01  0.1058E+02  0.1043E+02
     35.193  0.1459E+00  0.4157E+00  0.1061E+02  0.1050E+02
     35.366  0.2065E+00  0.4062E+00  0.1064E+02  0.1057E+02
     35.539  0.1162E+00  0.2120E+00  0.1066E+02  0.1060E+02
     35.712  0.4508E-01  0.1859E+00  0.1067E+02  0.1064E+02
     35.885  0.1462E+00  0.1070E+00  0.1070E+02  0.1065E+02
     36.059  0.2390E+00  0.1065E+00  0.1074E+02  0.1067E+02
     36.232  0.2833E+00  0.1264E+00  0.1079E+02  0.1070E+02
     36.405  0.1796E+00  0.1510E+00  0.1082E+02  0.1072E+02
     36.578  0.2441E+00  0.2546E+00  0.1086E+02  0.1077E+02
     36.751  0.3153E+00  0.2346E+00  0.1092E+02  0.1081E+02
     36.925  0.3180E+00  0.3603E+00  0.1097E+02  0.1087E+02
     37.098  0.4748E+00  0.3133E+00  0.1105E+02  0.1092E+02
     37.271  0.5617E+00  0.1959E+00  0.1115E+02  0.1096E+02
     37.444  0.2485E+00  0.4396E+00  0.1119E+02  0.1103E+02
     37.617  0.1752E+00  0.3611E+00  0.1122E+02  0.1110E+02
     37.790  0.1147E+00  0.1702E+00  0.1124E+02  0.1112E+02
     37.964  0.4006E-01  0.4099E+00  0.1125E+02  0.1120E+02
     38.137  0.1188E+00  0.2184E+00  0.1127E+02  0.1123E+02
     38.310  0.4574E+00  0.9040E-01  0.1135E+02  0.1125E+02
     38.483  0.5390E+00  0.2080E+00  0.1144E+02  0.1129E+02
     38.656  0.2441E+00  0.2610E+00  0.1149E+02  0.1133E+02
     38.830  0.7383E-01  0.2587E+00  0.1150E+02  0.1138E+02
     39.003  0.1749E+00  0.2095E+00  0.1153E+02  0.1141E+02
     39.176  0.2201E+00  0.3109E+00  0.1157E+02  0.1147E+02
     39.349  0.2054E+00  0.4661E+00  0.1160E+02  0.1155E+02
     39.522  0.1222E+00  0.3702E+00  0.1162E+02  0.1161E+02
     39.696  0.8621E-01  0.3338E-01  0.1164E+02  0.1162E+02
     39.869  0.3246E-01  0.5275E-01  0.1165E+02  0.1163E+02
     40.042  0.1007E+00  0.8886E-01  0.1166E+02  0.1164E+02
     40.215  0.7244E-01  0.9449E-02  0.1168E+02  0.1164E+02
     40.388  0.2410E+00  0.1055E+00  0.1172E+02  0.1166E+02
     40.561  0.3178E+00  0.1681E+00  0.1177E+02  0.1169E+02
     40.735  0.6804E-01  0.8365E-01  0.1178E+02  0.1170E+02
     40.908 -0.1373E-01  0.9782E-01  0.1178E+02  0.1172E+02
     41.081  0.6872E-01  0.1812E+00  0.1179E+02  0.1175E+02
     41.254  0.1436E+00  0.2650E+00  0.1182E+02  0.1180E+02
     41.427  0.1063E+00  0.5256E-01  0.1184E+02  0.1181E+02
     41.601  0.2743E-01  0.1655E-01  0.1184E+02  0.1181E+02
     41.774  0.3667E-01  0.1161E+00  0.1185E+02  0.1183E+02
     41.947  0.2209E+00  0.1466E+00  0.1189E+02  0.1186E+02
     42.120  0.1353E+00  0.1116E+00  0.1191E+02  0.1188E+02
     42.293 -0.4502E-02  0.6984E-01  0.1191E+02  0.1189E+02
     42.466  0.1295E-01  0.1058E+00  0.1191E+02  0.1191E+02
     42.640  0.2393E-01  0.1804E-01  0.1191E+02  0.1191E+02
     42.813  0.4720E-01  0.4094E-02  0.1192E+02  0.1191E+02
     42.986  0.8263E-01  0.2928E-01  0.1194E+02  0.1191E+02
     43.159  0.5084E-01  0.4350E-02  0.1195E+02  0.1192E+02
     43.332  0.8705E-01  0.3201E-01  0.1196E+02  0.1192E+02
     43.506  0.2040E-01  0.1473E+00  0.1196E+02  0.1195E+02
     43.679 -0.4014E-02  0.1029E+00  0.1196E+02  0.1196E+02
     43.852 -0.4417E-03  0.3556E-02  0.1196E+02  0.1196E+02
     44.025 -0.1535E-03 -0.4093E-02  0.1196E+02  0.1196E+02
     44.198 -0.2130E-02  0.1446E-03  0.1196E+02  0.1196E+02
     44.372  0.8922E-03  0.1515E-01  0.1196E+02  0.1197E+02
     44.545  0.6945E-01  0.1745E-01  0.1198E+02  0.1197E+02
     44.718  0.1209E+00  0.7823E-01  0.1200E+02  0.1198E+02
     44.891  0.2461E-01  0.9382E-01  0.1200E+02  0.1200E+02
     45.064 -0.5117E-02  0.7061E-02  0.1200E+02  0.1200E+02
     45.237 -0.5552E-03 -0.3374E-02  0.1200E+02  0.1200E+02
     45.411 -0.8312E-05 -0.2112E-03  0.1200E+02  0.1200E+02
     45.584 -0.2424E-07 -0.2253E-05  0.1200E+02  0.1200E+02
     45.757 -0.1480E-10 -0.5073E-08  0.1200E+02  0.1200E+02
     45.930 -0.1939E-14 -0.2525E-11  0.1200E+02  0.1200E+02
     46.103  0.0000E+00 -0.2769E-15  0.1200E+02  0.1200E+02
     46.277  0.0000E+00  0.0000E+00  0.1200E+02  0.1200E+02
     46.450  0.0000E+00  0.0000E+00  0.1200E+02  0.1200E+02
     46.623  0.0000E+00  0.0000E+00  0.1200E+02  0.1200E+02
     46.796  0.0000E+00  0.0000E+00  0.1200E+02  0.1200E+02
     46.969  0.0000E+00  0.0000E+00  0.1200E+02  0.1200E+02
     47.142  0.0000E+00  0.0000E+00  0.1200E+02  0.1200E+02
