    1    1    1    2
  0.1145291E+02  0.2459495E-09  0.2459495E-09  0.2459495E-09  0.5000000E-15
  1.000000000000000E-004
  CAR 
 bcc Fe                                  
      8     44     12
 
  0.5000000E-01  0.5000000E-01  0.5000000E-01  0.8000000E-02
    1       -2.050426     -1.849870   1.000000   1.000000
    2        3.286920      5.345373   1.000000   1.005789
    3        3.286920      5.345373   1.000000   1.005789
    4        3.793828      5.920240   1.000000   0.015740
    5        4.630912      7.392517   1.000000  -0.000000
    6        4.630912      7.392517   1.000000  -0.000000
    7       28.128440     28.257999   0.000000   0.000000
    8       28.128440     28.257999   0.000000   0.000000
    9       31.232311     30.994920   0.000000   0.000000
   10       32.446730     33.380653   0.000000   0.000000
   11       36.106911     36.455526   0.000000   0.000000
   12       36.106911     36.455526   0.000000   0.000000
 
  0.1500000E+00  0.5000000E-01  0.5000000E-01  0.2400000E-01
    1       -0.938708     -0.706348   1.000000   1.000000
    2        2.988579      4.983237   1.000000   1.000000
    3        3.137766      5.126464   1.000000   1.000031
    4        4.457400      6.633249   1.000000  -0.000000
    5        4.525575      7.215092   1.000000  -0.000000
    6        4.708823      7.488578   1.000000  -0.000000
    7       23.895730     24.400227   0.000000   0.000000
    8       26.207074     26.492257   0.000000   0.000000
    9       29.067022     29.912201   0.000000   0.000000
   10       31.507959     31.426911   0.000000   0.000000
   11       35.833527     36.483501   0.000000   0.000000
   12       36.177160     36.513868   0.000000   0.000000
 
  0.2500000E+00  0.5000000E-01  0.5000000E-01  0.2400000E-01
    1        0.415386      0.878074   1.000000   1.000000
    2        2.660673      4.584338   1.000000   1.000000
    3        3.219180      4.913905   1.000000   1.000000
    4        4.584837      7.223952   1.000000  -0.000000
    5        4.786196      7.592671   1.000000  -0.000000
    6        5.386447      7.596047   1.011195  -0.000000
    7       19.279916     20.093749   0.000000   0.000000
    8       24.477345     24.782828   0.000000   0.000000
    9       26.656135     27.420003   0.000000   0.000000
   10       31.079829     31.260884   0.000000   0.000000
   11       34.896300     35.519466   0.000000   0.000000
   12       38.155066     38.416436   0.000000   0.000000
 
  0.3500000E+00  0.5000000E-01  0.5000000E-01  0.2400000E-01
    1        0.965435      2.080901   1.000000   1.000000
    2        2.416851      4.288927   1.000000   1.000000
    3        4.272860      5.333176   1.000000   1.004658
    4        4.725677      7.336310   1.000000  -0.000000
    5        4.852057      7.691965   1.000000  -0.000000
    6        6.517581      8.557531  -0.000001  -0.000000
    7       15.161115     16.300056   0.000000   0.000000
    8       23.288910     23.563264   0.000000   0.000000
    9       25.031339     25.723319   0.000000   0.000000
   10       30.705580     31.038489   0.000000   0.000000
   11       34.568171     35.199246   0.000000   0.000000
   12       40.409529     40.560254   0.000000   0.000000
 
  0.4500000E+00  0.5000000E-01  0.5000000E-01  0.1200000E-01
    1        0.987562      2.362514   1.000000   1.000000
    2        2.326466      4.180252   1.000000   1.000000
    3        4.743318      5.964767   1.000000  -0.025214
    4        4.878231      7.382485   1.000000  -0.000000
    5        5.027481      7.731948   1.000001  -0.000000
    6        7.469687      9.091033  -0.000000  -0.000000
    7       13.043710     14.495123   0.000000   0.000000
    8       22.866094     23.122457   0.000000   0.000000
    9       24.434464     25.089847   0.000000   0.000000
   10       30.562473     30.945073   0.000000   0.000000
   11       34.537260     35.184802   0.000000   0.000000
   12       40.307833     40.374938   0.000000   0.000000
 
 -0.5000000E-01  0.5000000E-01  0.5000000E-01  0.6000000E-02
    1       -2.451585     -2.254761   1.000000   1.000000
    2        3.414633      5.498534   1.000000   1.033976
    3        3.414761      5.498688   1.000000   1.033996
    4        3.465477      5.565032   1.000000   1.024901
    5        4.595710      7.351191   1.000000  -0.000000
    6        4.722354      7.515725   1.000000  -0.000000
    7       29.462596     29.357569   0.000000   0.000000
    8       30.475830     30.339271   0.000000   0.000000
    9       30.475849     30.339293   0.000000   0.000000
   10       34.077271     34.464528   0.000000   0.000000
   11       36.000640     36.887935   0.000000   0.000000
   12       36.000727     36.888082   0.000000   0.000000
 
  0.1500000E+00  0.1500000E+00  0.5000000E-01  0.2400000E-01
    1        0.316339      0.649738   1.000000   1.000000
    2        2.764938      4.679972   1.000000   1.000000
    3        2.794649      4.688547   1.000000   1.000000
    4        4.547342      7.219342   1.000000  -0.000000
    5        4.794964      7.553164   1.000000  -0.000000
    6        5.444275      7.644217   1.022991  -0.000000
    7       21.594968     22.214292   0.000000   0.000000
    8       22.484941     23.073416   0.000000   0.000000
    9       25.889737     26.605787   0.000000   0.000000
   10       32.822781     32.742757   0.000000   0.000000
   11       36.735412     37.127918   0.000000   0.000000
   12       38.261425     38.733732   0.000000   0.000000
 
  0.2500000E+00  0.1500000E+00  0.5000000E-01  0.4800000E-01
    1        1.326676      2.136699   1.000000   1.000000
    2        2.483039      4.317825   1.000000   1.000000
    3        3.029291      4.577509   1.000000   1.000000
    4        4.643309      7.298050   1.000000  -0.000000
    5        4.897249      7.694870   1.000000  -0.000000
    6        6.826695      8.835388  -0.000000  -0.000000
    7       17.504409     18.393996   0.000000   0.000000
    8       20.641412     21.271696   0.000000   0.000000
    9       24.116444     24.742302   0.000000   0.000000
   10       33.043611     33.134374   0.000000   0.000000
   11       37.522052     37.867560   0.000000   0.000000
   12       38.940079     39.383923   0.000000   0.000000
 
  0.3500000E+00  0.1500000E+00  0.5000000E-01  0.4800000E-01
    1        1.424253      2.795481   1.000000   1.000000
    2        2.348640      4.149101   1.000000   1.000000
    3        3.765659      5.040517   1.000000   1.000002
    4        4.757597      7.415777   1.000000  -0.000000
    5        4.990583      7.754802   1.000000  -0.000000
    6        8.618032     10.149803  -0.000000  -0.000000
    7       13.897950     15.130427   0.000000   0.000000
    8       19.810244     20.434091   0.000000   0.000000
    9       23.217696     23.800492   0.000000   0.000000
   10       32.925407     33.119245   0.000000   0.000000
   11       38.217318     38.657357   0.000000   0.000000
   12       39.175157     39.395736   0.000000   0.000000
 
 -0.1500000E+00  0.1500000E+00  0.5000000E-01  0.2400000E-01
    1       -1.663633     -1.455996   1.000000   1.000000
    2        3.226758      5.270102   1.000000   1.001308
    3        3.375540      5.423296   1.000000   1.018264
    4        3.871954      6.010715   1.000000  -0.035453
    5        4.393352      7.073972   1.000000  -0.000000
    6        4.785348      7.587820   1.000000  -0.000000
    7       26.173596     26.483352   0.000000   0.000000
    8       28.845027     28.941916   0.000000   0.000000
    9       29.587645     29.801116   0.000000   0.000000
   10       33.280579     33.667474   0.000000   0.000000
   11       33.519176     34.258863   0.000000   0.000000
   12       34.495858     35.097814   0.000000   0.000000
 
  0.2500000E+00  0.2500000E+00  0.5000000E-01  0.2400000E-01
    1        1.861321      3.202596   1.000000   1.000000
    2        2.413594      4.099179   1.000000   1.000000
    3        3.006361      4.463788   1.000000   1.000000
    4        4.745591      7.411705   1.000000  -0.000000
    5        4.980812      7.736139   1.000000  -0.000000
    6        8.985320     10.595601  -0.000000  -0.000000
    7       15.877106     16.831526   0.000000   0.000000
    8       16.889942     17.724132   0.000000   0.000000
    9       23.019164     23.622649   0.000000   0.000000
   10       34.411969     34.488883   0.000000   0.000000
   11       37.282385     37.498737   0.000000   0.000000
   12       43.227718     43.533704   0.000000   0.000000
 
  0.3500000E+00  0.2500000E+00  0.5000000E-01  0.2400000E-01
    1        1.907651      3.467908   1.000000   1.000000
    2        2.454857      4.110320   1.000000   1.000000
    3        3.074656      4.516824   1.000000   1.000000
    4        4.836853      7.519241   1.000000  -0.000000
    5        4.980243      7.699223   1.000000  -0.000000
    6       11.104375     12.322214  -0.000000   0.000000
    7       13.336028     14.530501   0.000000   0.000000
    8       16.164855     17.030336   0.000000   0.000000
    9       22.675922     23.283211   0.000000   0.000000
   10       34.948086     35.062159   0.000000   0.000000
   11       37.259925     37.344818   0.000000   0.000000
   12       42.863856     43.403392   0.000000   0.000000
 
 -0.2500000E+00  0.2500000E+00  0.5000000E-01  0.2400000E-01
    1       -0.325846     -0.026077   1.000000   1.000000
    2        2.913459      4.890778   1.000000   1.000000
    3        3.278380      5.179542   1.000000   1.000141
    4        4.389159      6.825906   1.000000  -0.000000
    5        4.603927      6.977611   1.000000  -0.000000
    6        4.859095      7.661393   1.000000  -0.000000
    7       21.545495     22.230572   0.000000   0.000000
    8       26.691120     26.839074   0.000000   0.000000
    9       28.115580     28.696530   0.000000   0.000000
   10       31.437853     31.995130   0.000000   0.000000
   11       33.134826     33.712335   0.000000   0.000000
   12       35.243633     35.543767   0.000000   0.000000
 
 -0.1500000E+00  0.2500000E+00  0.5000000E-01  0.2400000E-01
    1       -0.600759     -0.347572   1.000000   1.000000
    2        3.159205      5.143476   1.000000   1.000051
    3        3.159323      5.179200   1.000000   1.000140
    4        4.203712      6.602781   1.000000  -0.000000
    5        4.425496      6.775434   1.000000  -0.000000
    6        4.930802      7.733970   1.000000  -0.000000
    7       23.764407     24.260386   0.000000   0.000000
    8       24.998108     25.532339   0.000000   0.000000
    9       29.694235     29.896679   0.000000   0.000000
   10       30.566309     31.189036   0.000000   0.000000
   11       33.260023     33.659083   0.000000   0.000000
   12       36.512682     36.952799   0.000000   0.000000
 
 -0.3500000E+00  0.3500000E+00  0.5000000E-01  0.2400000E-01
    1        0.722140      1.504372   1.000000   1.000000
    2        2.613477      4.530997   1.000000   1.000000
    3        3.748121      5.162857   1.000000   1.000089
    4        4.628013      7.141977   1.000000  -0.000000
    5        5.100784      7.750230   1.000014  -0.000000
    6        5.420633      7.775900   1.017692  -0.000000
    7       17.061421     18.044784   0.000000   0.000000
    8       24.990633     25.123953   0.000000   0.000000
    9       26.381047     27.063924   0.000000   0.000000
   10       30.437628     30.959808   0.000000   0.000000
   11       33.057950     33.660616   0.000000   0.000000
   12       37.088964     37.367755   0.000000   0.000000
 
 -0.2500000E+00  0.3500000E+00  0.5000000E-01  0.4800000E-01
    1        0.679284      1.181743   1.000000   1.000000
    2        2.804359      4.742953   1.000000   1.000000
    3        3.122330      4.942824   1.000000   1.000000
    4        4.328066      6.816523   1.000000  -0.000000
    5        4.988326      7.483997   1.000000  -0.000000
    6        5.514511      7.948419   1.035360  -0.000000
    7       19.554528     20.355212   0.000000   0.000000
    8       22.716564     23.291843   0.000000   0.000000
    9       27.878543     28.317571   0.000000   0.000000
   10       30.319169     30.723603   0.000000   0.000000
   11       33.779564     34.197238   0.000000   0.000000
   12       37.111382     37.558616   0.000000   0.000000
 
 -0.4500000E+00  0.4500000E+00  0.5000000E-01  0.2400000E-01
    1        0.908231      2.224312   1.000000   1.000000
    2        2.432084      4.316031   1.000000   1.000000
    3        4.391280      5.849861   1.000000   0.173015
    4        4.692489      7.266456   1.000000  -0.000000
    5        5.973999      8.049871  -0.029342  -0.000000
    6        6.343348      8.390789  -0.000167  -0.000000
    7       13.629371     14.987380   0.000000   0.000000
    8       24.065879     24.173834   0.000000   0.000000
    9       25.229555     25.873112   0.000000   0.000000
   10       30.045476     30.608867   0.000000   0.000000
   11       33.177883     33.833179   0.000000   0.000000
   12       38.340165     38.469191   0.000000   0.000000
 
 -0.3500000E+00  0.4500000E+00  0.5000000E-01  0.4800000E-01
    1        1.200546      2.362202   1.000000   1.000000
    2        2.608801      4.487329   1.000000   1.000000
    3        3.483948      5.001888   1.000000   1.000000
    4        4.561664      7.060237   1.000000  -0.000000
    5        5.355638      7.874496   1.006899  -0.000000
    6        6.958781      8.872554  -0.000000  -0.000000
    7       15.375586     16.476497   0.000000   0.000000
    8       21.464730     22.043443   0.000000   0.000000
    9       26.272900     26.667533   0.000000   0.000000
   10       30.496810     30.985560   0.000000   0.000000
   11       34.884739     35.215606   0.000000   0.000000
   12       36.895778     37.361166   0.000000   0.000000
 
 -0.2500000E+00  0.4500000E+00  0.5000000E-01  0.2400000E-01
    1        1.560432      2.516781   1.000000   1.000000
    2        2.467139      4.317904   1.000000   1.000000
    3        3.117712      4.844425   1.000000   1.000000
    4        4.452405      6.921358   1.000000  -0.000000
    5        5.137106      7.741439   1.000042  -0.000000
    6        7.200436      9.140053  -0.000000  -0.000000
    7       17.707097     18.607773   0.000000   0.000000
    8       18.506153     19.273861   0.000000   0.000000
    9       27.459812     27.967208   0.000000   0.000000
   10       30.096303     30.343541   0.000000   0.000000
   11       33.692581     34.093990   0.000000   0.000000
   12       41.368555     41.757981   0.000000   0.000000
 
 -0.4500000E+00 -0.4500000E+00  0.5000000E-01  0.2400000E-01
    1        1.207636      2.642326   1.000000   1.000000
    2        2.543321      4.414439   1.000000   1.000000
    3        3.727507      5.272053   1.000000   1.001366
    4        4.592830      7.134802   1.000000  -0.000000
    5        5.647837      8.071400   0.912616  -0.000000
    6        8.272368      9.687823  -0.000000  -0.000000
    7       13.098578     14.506207   0.000000   0.000000
    8       21.011849     21.582313   0.000000   0.000000
    9       25.705778     26.071925   0.000000   0.000000
   10       30.531837     31.065323   0.000000   0.000000
   11       36.046673     36.171606   0.000000   0.000000
   12       36.240391     36.813035   0.000000   0.000000
 
 -0.3500000E+00 -0.4500000E+00  0.5000000E-01  0.4800000E-01
    1        1.775546      3.252701   1.000000   1.000000
    2        2.504181      4.270792   1.000000   1.000000
    3        3.038252      4.671541   1.000000   1.000000
    4        4.672799      7.164582   1.000000  -0.000000
    5        5.280861      7.790717   1.001652  -0.000000
    6        9.544684     10.986853  -0.000000  -0.000000
    7       14.181451     15.329951   0.000000   0.000000
    8       17.347801     18.149932   0.000000   0.000000
    9       26.774774     27.261305   0.000000   0.000000
   10       30.762632     31.076508   0.000000   0.000000
   11       33.859416     34.073325   0.000000   0.000000
   12       40.395917     41.135749   0.000000   0.000000
 
 -0.3500000E+00 -0.3500000E+00  0.5000000E-01  0.8000000E-02
    1        2.225026      3.922965   1.000000   1.000000
    2        2.525161      4.174524   1.000000   1.000000
    3        2.525220      4.174561   1.000000   1.000000
    4        5.006646      7.501524   1.000001  -0.000000
    5        5.006776      7.501695   1.000001  -0.000000
    6       12.503979     13.665711   0.000000   0.000000
    7       12.504058     13.665805   0.000000   0.000000
    8       15.101347     16.087016   0.000000   0.000000
    9       26.891709     27.457916   0.000000   0.000000
   10       32.166856     32.365346   0.000000   0.000000
   11       32.166860     32.365491   0.000000   0.000000
   12       39.946215     40.909440   0.000000   0.000000
 
  0.1500000E+00  0.1500000E+00  0.1500000E+00  0.8000000E-02
    1        1.547645      2.071787   1.000000   1.000000
    2        2.478313      4.290386   1.000000   1.000000
    3        2.478313      4.290386   1.000000   1.000000
    4        4.762680      7.532298   1.000000  -0.000000
    5        4.762680      7.532298   1.000000  -0.000000
    6        6.843940      8.874312  -0.000000  -0.000000
    7       19.926012     20.599622   0.000000   0.000000
    8       19.926012     20.599622   0.000000   0.000000
    9       21.595509     22.385182   0.000000   0.000000
   10       35.686621     35.456121   0.000000   0.000000
   11       39.595783     39.898702   0.000000   0.000000
   12       39.595783     39.898702   0.000000   0.000000
 
  0.2500000E+00  0.1500000E+00  0.1500000E+00  0.2400000E-01
    1        1.960437      3.190032   1.000000   1.000000
    2        2.317908      4.059286   1.000000   1.000000
    3        2.929840      4.297770   1.000000   1.000000
    4        4.818170      7.575588   1.000000  -0.000000
    5        4.869966      7.705947   1.000000  -0.000000
    6        8.786321     10.445135  -0.000000  -0.000000
    7       16.044540     16.979759   0.000000   0.000000
    8       18.872635     19.563857   0.000000   0.000000
    9       19.900165     20.628687   0.000000   0.000000
   10       36.734576     36.668996   0.000000   0.000000
   11       40.540529     40.855551   0.000000   0.000000
   12       41.849530     41.952714   0.000000   0.000000
 
  0.3500000E+00  0.1500000E+00  0.1500000E+00  0.1200000E-01
    1        1.872909      3.333088   1.000000   1.000000
    2        2.268894      3.984849   1.000000   1.000000
    3        3.371174      4.684852   1.000000   1.000000
    4        4.851323      7.606489   1.000000  -0.000000
    5        4.898139      7.758592   1.000000  -0.000000
    6       10.589553     11.819226  -0.000000   0.000000
    7       13.424663     14.661623   0.000000   0.000000
    8       18.514110     19.207680   0.000000   0.000000
    9       19.426831     20.137531   0.000000   0.000000
   10       36.746597     36.764155   0.000000   0.000000
   11       41.149716     41.637863   0.000000   0.000000
   12       41.952938     42.039108   0.000000   0.000000
 
 -0.1500000E+00  0.1500000E+00  0.1500000E+00  0.6000000E-02
    1       -0.928279     -0.698062   1.000000   1.000000
    2        3.471881      5.510304   1.000000   1.035142
    3        3.472008      5.510456   1.000000   1.035152
    4        3.888709      6.036607   1.000000  -0.033127
    5        3.908882      6.463573   1.000000  -0.000005
    6        4.995973      7.810736   1.000000  -0.000000
    7       25.736878     25.974748   0.000000   0.000000
    8       27.379614     27.913164   0.000000   0.000000
    9       27.379716     27.913202   0.000000   0.000000
   10       29.094881     29.535791   0.000000   0.000000
   11       35.865408     36.255664   0.000000   0.000000
   12       35.865445     36.255674   0.000000   0.000000
 
  0.2500000E+00  0.2500000E+00  0.1500000E+00  0.2400000E-01
    1        2.156440      3.729620   1.000000   1.000000
    2        2.464005      4.032196   1.000000   1.000000
    3        2.831118      4.222808   1.000000   1.000000
    4        4.878797      7.687952   1.000000  -0.000000
    5        4.907906      7.749252   1.000000  -0.000000
    6       11.400975     12.653632   0.000000   0.000000
    7       14.713197     15.690617   0.000000   0.000000
    8       15.883059     16.770767   0.000000   0.000000
    9       18.761368     19.477370   0.000000   0.000000
   10       39.335258     39.281105   0.000000   0.000000
   11       41.109213     41.165413   0.000000   0.000000
   12       44.619087     44.722209   0.000000   0.000000
 
 -0.2500000E+00  0.2500000E+00  0.1500000E+00  0.2400000E-01
    1        0.282318      0.640729   1.000000   1.000000
    2        3.177180      5.267302   1.000000   1.001230
    3        3.322236      5.324956   1.000000   1.004002
    4        3.929361      6.241066   1.000000  -0.001927
    5        4.517103      6.728233   1.000000  -0.000000
    6        5.278927      7.995338   1.001585  -0.000000
    7       22.113329     22.782747   0.000000   0.000000
    8       25.218089     25.818249   0.000000   0.000000
    9       25.442505     25.886355   0.000000   0.000000
   10       29.061798     29.522595   0.000000   0.000000
   11       35.256794     35.729573   0.000000   0.000000
   12       36.585007     36.971142   0.000000   0.000000
 
 -0.3500000E+00  0.3500000E+00  0.1500000E+00  0.2400000E-01
    1        1.198763      2.062194   1.000000   1.000000
    2        2.924204      4.778906   1.000000   1.000000
    3        3.077862      5.033077   1.000000   1.000001
    4        4.312017      6.624132   1.000000  -0.000000
    5        5.345879      7.663568   1.005840  -0.000000
    6        6.171641      8.405685  -0.007123  -0.000000
    7       17.582922     18.515024   0.000000   0.000000
    8       23.433275     24.115627   0.000000   0.000000
    9       24.209860     24.584926   0.000000   0.000000
   10       30.635351     31.037077   0.000000   0.000000
   11       34.189311     34.701894   0.000000   0.000000
   12       36.457156     36.919440   0.000000   0.000000
 
 -0.2500000E+00  0.3500000E+00  0.1500000E+00  0.2400000E-01
    1        1.256413      1.948834   1.000000   1.000000
    2        2.654975      4.718842   1.000000   1.000000
    3        3.452269      5.403694   1.000000   1.014258
    4        4.069172      6.297459   1.000000  -0.000539
    5        5.028563      7.361987   1.000001  -0.000000
    6        6.158663      8.441937  -0.008789  -0.000000
    7       20.108804     20.908531   0.000000   0.000000
    8       20.773082     21.477126   0.000000   0.000000
    9       26.315087     26.761797   0.000000   0.000000
   10       27.782361     28.248468   0.000000   0.000000
   11       34.787610     35.280749   0.000000   0.000000
   12       40.010777     40.389142   0.000000   0.000000
 
 -0.4500000E+00  0.4500000E+00  0.1500000E+00  0.2400000E-01
    1        1.316457      2.751746   1.000000   1.000000
    2        2.925430      4.786430   1.000000   1.000000
    3        3.123058      4.851651   1.000000   1.000000
    4        4.386368      6.788223   1.000000  -0.000000
    5        5.923451      8.332276   0.011435  -0.000000
    6        8.092560      9.540112  -0.000000  -0.000000
    7       13.900105     15.157526   0.000000   0.000000
    8       22.371649     23.016605   0.000000   0.000000
    9       23.536692     23.913413   0.000000   0.000000
   10       32.684241     32.962711   0.000000   0.000000
   11       33.643441     34.173153   0.000000   0.000000
   12       35.416039     35.955993   0.000000   0.000000
 
 -0.3500000E+00  0.4500000E+00  0.1500000E+00  0.4800000E-01
    1        1.682163      2.990347   1.000000   1.000000
    2        2.426434      4.262454   1.000000   1.000000
    3        3.259635      5.193381   1.000000   1.000204
    4        4.408522      6.691732   1.000000  -0.000000
    5        5.505145      7.888453   1.034725  -0.000000
    6        8.170419      9.814562  -0.000000  -0.000000
    7       16.051340     17.043992   0.000000   0.000000
    8       19.217372     19.955601   0.000000   0.000000
    9       25.755753     26.197068   0.000000   0.000000
   10       29.242171     29.637339   0.000000   0.000000
   11       33.776147     34.269439   0.000000   0.000000
   12       38.427394     39.161710   0.000000   0.000000
 
 -0.4500000E+00 -0.4500000E+00  0.1500000E+00  0.2400000E-01
    1        1.633552      3.264189   1.000000   1.000000
    2        2.592121      4.289169   1.000000   1.000000
    3        3.077106      4.998014   1.000000   1.000000
    4        4.501055      6.812070   1.000000  -0.000000
    5        5.761265      8.154705   0.514105  -0.000000
    6       10.125816     11.325267  -0.000000   0.000000
    7       13.352144     14.613674   0.000000   0.000000
    8       18.735167     19.457770   0.000000   0.000000
    9       25.391653     25.829130   0.000000   0.000000
   10       31.013726     31.255329   0.000000   0.000000
   11       32.511236     33.101149   0.000000   0.000000
   12       37.111178     37.926981   0.000000   0.000000
 
 -0.3500000E+00 -0.4500000E+00  0.1500000E+00  0.2400000E-01
    1        2.067048      3.732492   1.000000   1.000000
    2        2.112378      3.892831   1.000000   1.000000
    3        2.997671      4.856557   1.000000   1.000000
    4        4.899446      7.206149   1.000000  -0.000000
    5        5.413657      7.780391   1.016231  -0.000000
    6       11.009371     12.258738  -0.000000   0.000000
    7       14.533520     15.574527   0.000000   0.000000
    8       15.817672     16.692407   0.000000   0.000000
    9       27.783506     28.151957   0.000000   0.000000
   10       28.735244     29.120038   0.000000   0.000000
   11       31.710023     32.261124   0.000000   0.000000
   12       37.069383     37.937355   0.000000   0.000000
 
  0.2500000E+00  0.2500000E+00  0.2500000E+00  0.2000000E-02
    1        2.506413      4.027873   1.000000   1.000000
    2        2.506413      4.027873   1.000000   1.000000
    3        2.506546      4.027977   1.000000   1.000000
    4        4.918171      7.781518   1.000000  -0.000000
    5        4.918171      7.781518   1.000000  -0.000000
    6       14.320600     15.303314   0.000000   0.000000
    7       14.320600     15.303314   0.000000   0.000000
    8       14.320751     15.303514   0.000000   0.000000
    9       16.468430     17.272778   0.000000   0.000000
   10       44.582746     44.371021   0.000000   0.000000
   11       44.582756     44.371022   0.000000   0.000000
   12       44.582768     44.371088   0.000000   0.000000
 
 -0.2500000E+00  0.2500000E+00  0.2500000E+00  0.6000000E-02
    1        1.122886      1.733126   1.000000   1.000000
    2        2.797941      5.056401   1.000000   1.000003
    3        3.850566      5.873555   1.000000   0.106306
    4        3.850707      5.873729   1.000000   0.105867
    5        4.577317      6.810829   1.000000  -0.000000
    6        5.963126      8.367223  -0.024346  -0.000000
    7       22.726636     23.427671   0.000000   0.000000
    8       22.726708     23.427684   0.000000   0.000000
    9       23.259804     23.844323   0.000000   0.000000
   10       25.569724     26.043952   0.000000   0.000000
   11       39.521733     39.887855   0.000000   0.000000
   12       39.521763     39.887930   0.000000   0.000000
 
 -0.3500000E+00  0.3500000E+00  0.2500000E+00  0.2400000E-01
    1        1.614494      2.757025   1.000000   1.000000
    2        2.242098      4.298625   1.000000   1.000000
    3        3.890131      5.919844   1.000000   0.016287
    4        4.228225      6.344076   1.000000  -0.000164
    5        5.241927      7.547231   1.000688  -0.000000
    6        7.484059      9.253736  -0.000000  -0.000000
    7       18.535805     19.356705   0.000000   0.000000
    8       20.766966     21.438883   0.000000   0.000000
    9       23.227288     23.851217   0.000000   0.000000
   10       26.105760     26.614124   0.000000   0.000000
   11       37.208130     37.938132   0.000000   0.000000
   12       38.422381     38.912222   0.000000   0.000000
 
 -0.4500000E+00  0.4500000E+00  0.2500000E+00  0.2400000E-01
    1        1.598146      3.275078   1.000000   1.000000
    2        2.094346      3.885753   1.000000   1.000000
    3        3.809714      5.829137   1.000000   0.242040
    4        4.397010      6.554779   1.000000  -0.000000
    5        5.836766      8.233763   0.215556  -0.000000
    6       10.011685     11.215673  -0.000000  -0.000000
    7       14.563245     15.603542   0.000000   0.000000
    8       19.623380     20.237494   0.000000   0.000000
    9       22.912773     23.562827   0.000000   0.000000
   10       28.093695     28.489347   0.000000   0.000000
   11       33.776835     34.641784   0.000000   0.000000
   12       37.778015     38.267412   0.000000   0.000000
 
 -0.3500000E+00  0.4500000E+00  0.2500000E+00  0.2400000E-01
    1        1.699264      3.262176   1.000000   1.000000
    2        1.793426      3.749761   1.000000   1.000000
    3        3.968319      5.984636   1.000000  -0.032643
    4        4.760209      6.929475   1.000000  -0.000000
    5        5.557876      7.906124   1.028273  -0.000000
    6        9.822136     11.079643  -0.000000  -0.000000
    7       16.912520     17.756206   0.000000   0.000000
    8       17.419760     18.136354   0.000000   0.000000
    9       24.093710     24.701753   0.000000   0.000000
   10       25.730483     26.263780   0.000000   0.000000
   11       33.293906     34.126971   0.000000   0.000000
   12       38.636533     39.145963   0.000000   0.000000
 
 -0.4500000E+00 -0.4500000E+00  0.2500000E+00  0.2400000E-01
    1        1.588926      3.430231   1.000000   1.000000
    2        1.738752      3.531727   1.000000   1.000000