       N       E                     dE             d eps       ncg     rms          rms(c)
DAV:   1     0.101604381815E+02    0.10160E+02   -0.26676E+03  2360   0.464E+02
DAV:   2    -0.883229279095E+01   -0.18993E+02   -0.17500E+02  2228   0.933E+01
DAV:   3    -0.913079224595E+01   -0.29850E+00   -0.29802E+00  2424   0.132E+01
DAV:   4    -0.913158874597E+01   -0.79650E-03   -0.79646E-03  2400   0.640E-01
DAV:   5    -0.913159255492E+01   -0.38089E-05   -0.38096E-05  1912   0.450E-02    0.112E+01
DAV:   6    -0.830875667315E+01    0.82284E+00   -0.10310E+01  2364   0.367E+01    0.497E+00
DAV:   7    -0.824528129126E+01    0.63475E-01   -0.56933E-01  2440   0.833E+00    0.300E+00
DAV:   8    -0.824155929048E+01    0.37220E-02   -0.68190E-03  2428   0.517E-01    0.148E+00
DAV:   9    -0.823583876822E+01    0.57205E-02   -0.10012E-02  2752   0.639E-01    0.374E-01
DAV:  10    -0.823631256104E+01   -0.47379E-03   -0.19194E-04  2020   0.131E-01    0.229E-01
DAV:  11    -0.823659310758E+01   -0.28055E-03   -0.57549E-04  2280   0.170E-01    0.410E-02
DAV:  12    -0.823659006446E+01    0.30431E-05   -0.19240E-05  1120   0.352E-02
   1 F= -.82365901E+01 E0= -.82369335E+01  d E =0.103045E-02  mag=     2.3256
