 vasp.5.4.4.18Apr17-6-g9f103f2a35 (build Jul 01 2019 03:25:34) complex          
  
 executed on             LinuxIFC date 2020.07.08  18:39:00
 running on    4 total cores
 distrk:  each k-point on    4 cores,    1 groups
 distr:  one band on NCORES_PER_BAND=   1 cores,    4 groups


--------------------------------------------------------------------------------------------------------


 INCAR:
 POTCAR:    PAW_PBE Fe 06Sep2000                  
 POTCAR:    PAW_PBE Fe 06Sep2000                  
   VRHFIN =Fe:  d7 s1                                                           
   LEXCH  = PE                                                                  
   EATOM  =   594.3153 eV,   43.6809 Ry                                         
                                                                                
   TITEL  = PAW_PBE Fe 06Sep2000                                                
   LULTRA =        F    use ultrasoft PP ?                                      
   IUNSCR =        1    unscreen: 0-lin 1-nonlin 2-no                           
   RPACOR =    2.000    partial core radius                                     
   POMASS =   55.847; ZVAL   =    8.000    mass and valenz                      
   RCORE  =    2.300    outmost cutoff radius                                   
   RWIGS  =    2.460; RWIGS  =    1.302    wigner-seitz radius (au A)           
   ENMAX  =  267.882; ENMIN  =  200.911 eV                                      
   RCLOC  =    1.701    cutoff for local pot                                    
   LCOR   =        T    correct aug charges                                     
   LPAW   =        T    paw PP                                                  
   EAUG   =  511.368                                                            
   DEXC   =    0.000                                                            
   RMAX   =    2.356    core radius for proj-oper                               
   RAUG   =    1.300    factor for augmentation sphere                          
   RDEP   =    2.442    radius for radial grids                                 
   RDEPT  =    1.890    core radius for aug-charge                              
                                                                                
   Atomic configuration                                                         
    9 entries                                                                   
     n  l   j            E        occ.                                          
     1  0  0.50     -6993.8440   2.0000                                         
     2  0  0.50      -814.6047   2.0000                                         
     2  1  1.50      -693.3689   6.0000                                         
     3  0  0.50       -89.4732   2.0000                                         
     3  1  1.50       -55.6373   6.0000                                         
     3  2  2.50        -3.8151   7.0000                                         
     4  0  0.50        -4.2551   1.0000                                         
     4  1  1.50        -3.4015   0.0000                                         
     4  3  2.50        -1.3606   0.0000                                         
   Description                                                                  
     l       E           TYP  RCUT    TYP  RCUT                                 
     2     -3.8151135     23  2.300                                             
     2     -5.1756961     23  2.300                                             
     0     -4.2550963     23  2.300                                             
     0      7.2035603     23  2.300                                             
     1     -2.7211652     23  2.300                                             
     1     18.4316424     23  2.300                                             
  local pseudopotential read in
  partial core-charges read in
  partial kinetic energy density read in
  atomic valenz-charges read in
  non local Contribution for L=           2  read in
    real space projection operators read in
  non local Contribution for L=           2  read in
    real space projection operators read in
  non local Contribution for L=           0  read in
    real space projection operators read in
  non local Contribution for L=           0  read in
    real space projection operators read in
  non local Contribution for L=           1  read in
    real space projection operators read in
  non local Contribution for L=           1  read in
    real space projection operators read in
    PAW grid and wavefunctions read in
 
   number of l-projection  operators is LMAX  =           6
   number of lm-projection operators is LMMAX =          18
 
  PAW_PBE Fe 06Sep2000                  :
 energy of atom  1       EATOM= -594.3153
 kinetic energy error for atom=    0.0345 (will be added to EATOM!!)
 
 
 POSCAR: Fe bulk bcc                             
  positions in direct lattice
  No initial velocities read in
 exchange correlation table for  LEXCH =        8
   RHO(1)=    0.500       N(1)  =     2000
   RHO(2)=  100.500       N(2)  =     4000
 


--------------------------------------------------------------------------------------------------------


 ion  position               nearest neighbor table
   1  0.000  0.000  0.000-
 
  LATTYP: Found a body centered cubic cell.
 ALAT       =     2.8399800000
  
  Lattice vectors:
  
 A1 = (  -1.4199900000,   1.4199900000,   1.4199900000)
 A2 = (   1.4199900000,  -1.4199900000,   1.4199900000)
 A3 = (   1.4199900000,   1.4199900000,  -1.4199900000)


Analysis of symmetry for initial positions (statically):
=====================================================================
 Subroutine PRICEL returns:
 Original cell was already a primitive cell.
 

 Routine SETGRP: Setting up the symmetry group for a 
 body centered cubic supercell.


 Subroutine GETGRP returns: Found 48 space group operations
 (whereof 48 operations were pure point group operations)
 out of a pool of 48 trial point group operations.


The static configuration has the point symmetry O_h .


Analysis of symmetry for dynamics (positions and initial velocities):
=====================================================================
 Subroutine PRICEL returns:
 Original cell was already a primitive cell.
 

 Routine SETGRP: Setting up the symmetry group for a 
 body centered cubic supercell.


 Subroutine GETGRP returns: Found 48 space group operations
 (whereof 48 operations were pure point group operations)
 out of a pool of 48 trial point group operations.


The dynamic configuration has the point symmetry O_h .


Analysis of structural, dynamic, and magnetic symmetry:
=====================================================================
 Subroutine PRICEL returns:
 Original cell was already a primitive cell.
 

 Routine SETGRP: Setting up the symmetry group for a 
 body centered cubic supercell.


 Subroutine GETGRP returns: Found 48 space group operations
 (whereof 48 operations were pure point group operations)
 out of a pool of 48 trial point group operations.


The magnetic configuration has the point symmetry O_h .


 Subroutine INISYM returns: Found 48 space group operations
 (whereof 48 operations are pure point group operations),
 and found     1 'primitive' translations

 
 
 KPOINTS: 10x10x10                                

Automatic generation of k-mesh.
Space group operators:
 irot       det(A)        alpha          n_x          n_y          n_z        tau_x        tau_y        tau_z
    1     1.000000     0.000000     1.000000     0.000000     0.000000     0.000000     0.000000     0.000000
    2    -1.000000     0.000000     1.000000     0.000000     0.000000     0.000000     0.000000     0.000000
    3     1.000000   120.000000    -0.577350    -0.577350    -0.577350     0.000000     0.000000     0.000000
    4    -1.000000   120.000000    -0.577350    -0.577350    -0.577350     0.000000     0.000000     0.000000
    5     1.000000   120.000000     0.577350     0.577350     0.577350     0.000000     0.000000     0.000000
    6    -1.000000   120.000000     0.577350     0.577350     0.577350     0.000000     0.000000     0.000000
    7     1.000000    90.000000     0.000000     0.000000    -1.000000     0.000000     0.000000     0.000000
    8    -1.000000    90.000000     0.000000     0.000000    -1.000000     0.000000     0.000000     0.000000
    9     1.000000   180.000000     0.000000     0.707107     0.707107     0.000000     0.000000     0.000000
   10    -1.000000   180.000000     0.000000     0.707107     0.707107     0.000000     0.000000     0.000000
   11     1.000000    90.000000     0.000000     1.000000     0.000000     0.000000     0.000000     0.000000
   12    -1.000000    90.000000     0.000000     1.000000     0.000000     0.000000     0.000000     0.000000
   13     1.000000   180.000000     0.000000     0.000000     1.000000     0.000000     0.000000     0.000000
   14    -1.000000   180.000000     0.000000     0.000000     1.000000     0.000000     0.000000     0.000000
   15     1.000000   120.000000    -0.577350     0.577350     0.577350     0.000000     0.000000     0.000000
   16    -1.000000   120.000000    -0.577350     0.577350     0.577350     0.000000     0.000000     0.000000
   17     1.000000   120.000000    -0.577350     0.577350    -0.577350     0.000000     0.000000     0.000000
   18    -1.000000   120.000000    -0.577350     0.577350    -0.577350     0.000000     0.000000     0.000000
   19     1.000000    90.000000     0.000000     0.000000     1.000000     0.000000     0.000000     0.000000
   20    -1.000000    90.000000     0.000000     0.000000     1.000000     0.000000     0.000000     0.000000
   21     1.000000    90.000000    -1.000000     0.000000     0.000000     0.000000     0.000000     0.000000
   22    -1.000000    90.000000    -1.000000     0.000000     0.000000     0.000000     0.000000     0.000000
   23     1.000000   180.000000     0.707107     0.000000     0.707107     0.000000     0.000000     0.000000
   24    -1.000000   180.000000     0.707107     0.000000     0.707107     0.000000     0.000000     0.000000
   25     1.000000   120.000000     0.577350    -0.577350     0.577350     0.000000     0.000000     0.000000
   26    -1.000000   120.000000     0.577350    -0.577350     0.577350     0.000000     0.000000     0.000000
   27     1.000000   120.000000    -0.577350    -0.577350     0.577350     0.000000     0.000000     0.000000
   28    -1.000000   120.000000    -0.577350    -0.577350     0.577350     0.000000     0.000000     0.000000
   29     1.000000   180.000000     1.000000     0.000000     0.000000     0.000000     0.000000     0.000000
   30    -1.000000   180.000000     1.000000     0.000000     0.000000     0.000000     0.000000     0.000000
   31     1.000000    90.000000     0.000000    -1.000000     0.000000     0.000000     0.000000     0.000000
   32    -1.000000    90.000000     0.000000    -1.000000     0.000000     0.000000     0.000000     0.000000
   33     1.000000   180.000000     0.707107     0.707107     0.000000     0.000000     0.000000     0.000000
   34    -1.000000   180.000000     0.707107     0.707107     0.000000     0.000000     0.000000     0.000000
   35     1.000000    90.000000     1.000000     0.000000     0.000000     0.000000     0.000000     0.000000
   36    -1.000000    90.000000     1.000000     0.000000     0.000000     0.000000     0.000000     0.000000
   37     1.000000   120.000000     0.577350    -0.577350    -0.577350     0.000000     0.000000     0.000000
   38    -1.000000   120.000000     0.577350    -0.577350    -0.577350     0.000000     0.000000     0.000000
   39     1.000000   180.000000     0.000000     1.000000     0.000000     0.000000     0.000000     0.000000
   40    -1.000000   180.000000     0.000000     1.000000     0.000000     0.000000     0.000000     0.000000
   41     1.000000   120.000000     0.577350     0.577350    -0.577350     0.000000     0.000000     0.000000
   42    -1.000000   120.000000     0.577350     0.577350    -0.577350     0.000000     0.000000     0.000000
   43     1.000000   180.000000     0.000000    -0.707107     0.707107     0.000000     0.000000     0.000000
   44    -1.000000   180.000000     0.000000    -0.707107     0.707107     0.000000     0.000000     0.000000
   45     1.000000   180.000000     0.707107    -0.707107     0.000000     0.000000     0.000000     0.000000
   46    -1.000000   180.000000     0.707107    -0.707107     0.000000     0.000000     0.000000     0.000000
   47     1.000000   180.000000     0.707107     0.000000    -0.707107     0.000000     0.000000     0.000000
   48    -1.000000   180.000000     0.707107     0.000000    -0.707107     0.000000     0.000000     0.000000
 
 Subroutine IBZKPT returns following result:
 ===========================================
 
 Found     44 irreducible k-points:
 
 Following reciprocal coordinates:
            Coordinates               Weight
  0.050000  0.050000  0.050000      8.000000
  0.150000  0.050000  0.050000     24.000000
  0.250000  0.050000  0.050000     24.000000
  0.350000  0.050000  0.050000     24.000000
  0.450000  0.050000  0.050000     12.000000
 -0.050000  0.050000  0.050000      6.000000
  0.150000  0.150000  0.050000     24.000000
  0.250000  0.150000  0.050000     48.000000
  0.350000  0.150000  0.050000     48.000000
 -0.150000  0.150000  0.050000     24.000000
  0.250000  0.250000  0.050000     24.000000
  0.350000  0.250000  0.050000     24.000000
 -0.250000  0.250000  0.050000     24.000000
 -0.150000  0.250000  0.050000     24.000000
 -0.350000  0.350000  0.050000     24.000000
 -0.250000  0.350000  0.050000     48.000000
 -0.450000  0.450000  0.050000     24.000000
 -0.350000  0.450000  0.050000     48.000000
 -0.250000  0.450000  0.050000     24.000000
 -0.450000 -0.450000  0.050000     24.000000
 -0.350000 -0.450000  0.050000     48.000000
 -0.350000 -0.350000  0.050000      8.000000
  0.150000  0.150000  0.150000      8.000000
  0.250000  0.150000  0.150000     24.000000
  0.350000  0.150000  0.150000     12.000000
 -0.150000  0.150000  0.150000      6.000000
  0.250000  0.250000  0.150000     24.000000
 -0.250000  0.250000  0.150000     24.000000
 -0.350000  0.350000  0.150000     24.000000
 -0.250000  0.350000  0.150000     24.000000
 -0.450000  0.450000  0.150000     24.000000
 -0.350000  0.450000  0.150000     48.000000
 -0.450000 -0.450000  0.150000     24.000000
 -0.350000 -0.450000  0.150000     24.000000
  0.250000  0.250000  0.250000      2.000000
 -0.250000  0.250000  0.250000      6.000000
 -0.350000  0.350000  0.250000     24.000000
 -0.450000  0.450000  0.250000     24.000000
 -0.350000  0.450000  0.250000     24.000000
 -0.450000 -0.450000  0.250000     24.000000
 -0.350000  0.350000  0.350000      6.000000
 -0.450000  0.450000  0.350000     24.000000
 -0.450000 -0.450000  0.350000      8.000000
 -0.450000  0.450000  0.450000      6.000000
 
 Following cartesian coordinates:
            Coordinates               Weight
  0.100000  0.100000  0.100000      8.000000
  0.100000  0.200000  0.200000     24.000000
  0.100000  0.300000  0.300000     24.000000
  0.100000  0.400000  0.400000     24.000000
  0.100000  0.500000  0.500000     12.000000
  0.100000  0.000000  0.000000      6.000000
  0.200000  0.200000  0.300000     24.000000
  0.200000  0.300000  0.400000     48.000000
  0.200000  0.400000  0.500000     48.000000
  0.200000 -0.100000  0.000000     24.000000
  0.300000  0.300000  0.500000     24.000000
  0.300000  0.400000  0.600000     24.000000
  0.300000 -0.200000  0.000000     24.000000
  0.300000 -0.100000  0.100000     24.000000
  0.400000 -0.300000  0.000000     24.000000
  0.400000 -0.200000  0.100000     48.000000
  0.500000 -0.400000  0.000000     24.000000
  0.500000 -0.300000  0.100000     48.000000
  0.500000 -0.200000  0.200000     24.000000
 -0.400000 -0.400000 -0.900000     24.000000
 -0.400000 -0.300000 -0.800000     48.000000
 -0.300000 -0.300000 -0.700000      8.000000
  0.300000  0.300000  0.300000      8.000000
  0.300000  0.400000  0.400000     24.000000
  0.300000  0.500000  0.500000     12.000000
  0.300000  0.000000  0.000000      6.000000
  0.400000  0.400000  0.500000     24.000000
  0.400000 -0.100000  0.000000     24.000000
  0.500000 -0.200000  0.000000     24.000000
  0.500000 -0.100000  0.100000     24.000000
  0.600000 -0.300000  0.000000     24.000000
  0.600000 -0.200000  0.100000     48.000000
 -0.300000 -0.300000 -0.900000     24.000000
 -0.300000 -0.200000 -0.800000     24.000000
  0.500000  0.500000  0.500000      2.000000
  0.500000  0.000000  0.000000      6.000000
  0.600000 -0.100000  0.000000     24.000000
  0.700000 -0.200000  0.000000     24.000000
  0.700000 -0.100000  0.100000     24.000000
 -0.200000 -0.200000 -0.900000     24.000000
  0.700000  0.000000  0.000000      6.000000
  0.800000 -0.100000  0.000000     24.000000
 -0.100000 -0.100000 -0.900000      8.000000
  0.900000  0.000000  0.000000      6.000000
 


--------------------------------------------------------------------------------------------------------




 Dimension of arrays:
   k-points           NKPTS =     44   k-points in BZ     NKDIM =     44   number of bands    NBANDS=     12
   number of dos      NEDOS =    301   number of ions     NIONS =      1
   non local maximal  LDIM  =      6   non local SUM 2l+1 LMDIM =     18
   total plane-waves  NPLWV =   1000
   max r-space proj   IRMAX =      1   max aug-charges    IRDMAX=   3309
   dimension x,y,z NGX =    10 NGY =   10 NGZ =   10
   dimension x,y,z NGXF=    20 NGYF=   20 NGZF=   20
   support grid    NGXF=    20 NGYF=   20 NGZF=   20
   ions per type =               1
   NGX,Y,Z   is equivalent  to a cutoff of   6.76,  6.76,  6.76 a.u.
   NGXF,Y,Z  is equivalent  to a cutoff of  13.52, 13.52, 13.52 a.u.

 SYSTEM =  bcc Fe                                  
 POSCAR =  Fe bulk bcc                             

 Startparameter for this run:
   NWRITE =      2    write-flag & timer
   PREC   = normal    normal or accurate (medium, high low for compatibility)
   ISTART =      0    job   : 0-new  1-cont  2-samecut
   ICHARG =      2    charge: 1-file 2-atom 10-const
   ISPIN  =      2    spin polarized calculation?
   LNONCOLLINEAR =      F non collinear calculations
   LSORBIT =      F    spin-orbit coupling
   INIWAV =      1    electr: 0-lowe 1-rand  2-diag
   LASPH  =      F    aspherical Exc in radial PAW
   METAGGA=      F    non-selfconsistent MetaGGA calc.

 Electronic Relaxation 1
   ENCUT  =  268.0 eV  19.70 Ry    4.44 a.u.   3.28  3.28  3.28*2*pi/ulx,y,z
   ENINI  =  268.0     initial cutoff
   ENAUG  =  511.4 eV  augmentation charge cutoff
   NELM   =     60;   NELMIN=  2; NELMDL= -5     # of ELM steps 
   EDIFF  = 0.1E-03   stopping-criterion for ELM
   LREAL  =      F    real-space projection
   NLSPLINE    = F    spline interpolate recip. space projectors
   LCOMPAT=      F    compatible to vasp.4.4
   GGA_COMPAT  = T    GGA compatible to vasp.4.4-vasp.4.6
   LMAXPAW     = -100 max onsite density
   LMAXMIX     =    2 max onsite mixed and CHGCAR
   VOSKOWN=      0    Vosko Wilk Nusair interpolation
   ROPT   =    0.00000
 Ionic relaxation
   EDIFFG = 0.1E-02   stopping-criterion for IOM
   NSW    =      0    number of steps for IOM
   NBLOCK =      1;   KBLOCK =      1    inner block; outer block 
   IBRION =     -1    ionic relax: 0-MD 1-quasi-New 2-CG
   NFREE  =      0    steps in history (QN), initial steepest desc. (CG)
   ISIF   =      2    stress and relaxation
   IWAVPR =     10    prediction:  0-non 1-charg 2-wave 3-comb
   ISYM   =      2    0-nonsym 1-usesym 2-fastsym
   LCORR  =      T    Harris-Foulkes like correction to forces

   POTIM  = 0.5000    time-step for ionic-motion
   TEIN   =    0.0    initial temperature
   TEBEG  =    0.0;   TEEND  =   0.0 temperature during run
   SMASS  =  -3.00    Nose mass-parameter (am)
   estimated Nose-frequenzy (Omega)   =  0.10E-29 period in steps =****** mass=  -0.138E-27a.u.
   SCALEE = 1.0000    scale energy and forces
   NPACO  =    256;   APACO  = 16.0  distance and # of slots for P.C.
   PSTRESS=    0.0 pullay stress

  Mass of Ions in am
   POMASS =  55.85
  Ionic Valenz
   ZVAL   =   8.00
  Atomic Wigner-Seitz radii
   RWIGS  =  -1.00
  virtual crystal weights 
   VCA    =   1.00
   NELECT =       8.0000    total number of electrons
   NUPDOWN=      -1.0000    fix difference up-down

 DOS related values:
   EMIN   =  10.00;   EMAX   =-10.00  energy-range for DOS
   EFERMI =   0.00
   ISMEAR =     1;   SIGMA  =   0.20  broadening in eV -4-tet -1-fermi 0-gaus

 Electronic relaxation 2 (details)
   IALGO  =     38    algorithm
   LDIAG  =      T    sub-space diagonalisation (order eigenvalues)
   LSUBROT=      F    optimize rotation matrix (better conditioning)
   TURBO    =      0    0=normal 1=particle mesh
   IRESTART =      0    0=no restart 2=restart with 2 vectors
   NREBOOT  =      0    no. of reboots
   NMIN     =      0    reboot dimension
   EREF     =   0.00    reference energy to select bands
   IMIX   =      4    mixing-type and parameters
     AMIX     =   0.40;   BMIX     =  1.00
     AMIX_MAG =   1.60;   BMIX_MAG =  1.00
     AMIN     =   0.10
     WC   =   100.;   INIMIX=   1;  MIXPRE=   1;  MAXMIX= -45

 Intra band minimization:
   WEIMIN = 0.0000     energy-eigenvalue tresh-hold
   EBREAK =  0.21E-05  absolut break condition
   DEPER  =   0.30     relativ break condition  

   TIME   =   0.40     timestep for ELM

  volume/ion in A,a.u.               =      11.45        77.29
  Fermi-wavevector in a.u.,A,eV,Ry     =   1.452556  2.744933 28.707189  2.109919
  Thomas-Fermi vector in A             =   2.569924
 
 Write flags
   LWAVE        =      T    write WAVECAR
   LDOWNSAMPLE  =      F    k-point downsampling of WAVECAR
   LCHARG       =      T    write CHGCAR
   LVTOT        =      F    write LOCPOT, total local potential
   LVHAR        =      F    write LOCPOT, Hartree potential only
   LELF         =      F    write electronic localiz. function (ELF)
   LORBIT       =      0    0 simple, 1 ext, 2 COOP (PROOUT), +10 PAW based schemes


 Dipole corrections
   LMONO  =      F    monopole corrections only (constant potential shift)
   LDIPOL =      F    correct potential (dipole corrections)
   IDIPOL =      0    1-x, 2-y, 3-z, 4-all directions 
   EPSILON=  1.0000000 bulk dielectric constant

 Exchange correlation treatment:
   GGA     =    --    GGA type
   LEXCH   =     8    internal setting for exchange type
   VOSKOWN=      0    Vosko Wilk Nusair interpolation
   LHFCALC =     F    Hartree Fock is set to
   LHFONE  =     F    Hartree Fock one center treatment
   AEXX    =    0.0000 exact exchange contribution

 Linear response parameters
   LEPSILON=     F    determine dielectric tensor
   LRPA    =     F    only Hartree local field effects (RPA)
   LNABLA  =     F    use nabla operator in PAW spheres
   LVEL    =     F    velocity operator in full k-point grid
   LINTERFAST=   F  fast interpolation
   KINTER  =     0    interpolate to denser k-point grid
   CSHIFT  =0.1000    complex shift for real part using Kramers Kronig
   OMEGAMAX=  -1.0    maximum frequency
   DEG_THRESHOLD= 0.2000000E-02 threshold for treating states as degnerate
   RTIME   =   -0.100 relaxation time in fs
  (WPLASMAI=    0.000 imaginary part of plasma frequency in eV, 0.658/RTIME)
   DFIELD  = 0.0000000 0.0000000 0.0000000 field for delta impulse in time
 
 Orbital magnetization related:
   ORBITALMAG=     F  switch on orbital magnetization
   LCHIMAG   =     F  perturbation theory with respect to B field
   DQ        =  0.001000  dq finite difference perturbation B field
   LLRAUG    =     F  two centre corrections for induced B field



--------------------------------------------------------------------------------------------------------


 Static calculation
 charge density and potential will be updated during run
 spin polarized calculation
 Variant of blocked Davidson
 Davidson routine will perform the subspace rotation
 perform sub-space diagonalisation
    after iterative eigenvector-optimisation
 modified Broyden-mixing scheme, WC =      100.0
 initial mixing is a Kerker type mixing with AMIX =  0.4000 and BMIX =      1.0000
 Hartree-type preconditioning will be used
 using additional bands            8
 reciprocal scheme for non local part
 use partial core corrections
 calculate Harris-corrections to forces 
   (improved forces if not selfconsistent)
 use gradient corrections 
 use of overlap-Matrix (Vanderbilt PP)
 Methfessel and Paxton  Order N= 1 SIGMA  =   0.20


--------------------------------------------------------------------------------------------------------


  energy-cutoff  :      268.00
  volume of cell :       11.45
      direct lattice vectors                 reciprocal lattice vectors
    -1.419990000  1.419990000  1.419990000     0.000000000  0.352115156  0.352115156
     1.419990000 -1.419990000  1.419990000     0.352115156  0.000000000  0.352115156
     1.419990000  1.419990000 -1.419990000     0.352115156  0.352115156  0.000000000

  length of vectors
     2.459494826  2.459494826  2.459494826     0.497966029  0.497966029  0.497966029


 
 k-points in units of 2pi/SCALE and weight: 10x10x10                                
   0.10000000  0.10000000  0.10000000       0.008
   0.10000000  0.20000000  0.20000000       0.024
   0.10000000  0.30000000  0.30000000       0.024
   0.10000000  0.40000000  0.40000000       0.024
   0.10000000  0.50000000  0.50000000       0.012
   0.10000000  0.00000000  0.00000000       0.006
   0.20000000  0.20000000  0.30000000       0.024
   0.20000000  0.30000000  0.40000000       0.048
   0.20000000  0.40000000  0.50000000       0.048
   0.20000000 -0.10000000  0.00000000       0.024
   0.30000000  0.30000000  0.50000000       0.024
   0.30000000  0.40000000  0.60000000       0.024
   0.30000000 -0.20000000  0.00000000       0.024
   0.30000000 -0.10000000  0.10000000       0.024
   0.40000000 -0.30000000  0.00000000       0.024
   0.40000000 -0.20000000  0.10000000       0.048
   0.50000000 -0.40000000  0.00000000       0.024
   0.50000000 -0.30000000  0.10000000       0.048
   0.50000000 -0.20000000  0.20000000       0.024
  -0.40000000 -0.40000000 -0.90000000       0.024
  -0.40000000 -0.30000000 -0.80000000       0.048
  -0.30000000 -0.30000000 -0.70000000       0.008
   0.30000000  0.30000000  0.30000000       0.008
   0.30000000  0.40000000  0.40000000       0.024
   0.30000000  0.50000000  0.50000000       0.012
   0.30000000  0.00000000  0.00000000       0.006
   0.40000000  0.40000000  0.50000000       0.024
   0.40000000 -0.10000000  0.00000000       0.024
   0.50000000 -0.20000000  0.00000000       0.024
   0.50000000 -0.10000000  0.10000000       0.024
   0.60000000 -0.30000000  0.00000000       0.024
   0.60000000 -0.20000000  0.10000000       0.048
  -0.30000000 -0.30000000 -0.90000000       0.024
  -0.30000000 -0.20000000 -0.80000000       0.024
   0.50000000  0.50000000  0.50000000       0.002
   0.50000000  0.00000000  0.00000000       0.006
   0.60000000 -0.10000000  0.00000000       0.024
   0.70000000 -0.20000000  0.00000000       0.024
   0.70000000 -0.10000000  0.10000000       0.024
  -0.20000000 -0.20000000 -0.90000000       0.024
   0.70000000  0.00000000  0.00000000       0.006
   0.80000000 -0.10000000  0.00000000       0.024
  -0.10000000 -0.10000000 -0.90000000       0.008
   0.90000000  0.00000000  0.00000000       0.006
 
 k-points in reciprocal lattice and weights: 10x10x10                                
   0.05000000  0.05000000  0.05000000       0.008
   0.15000000  0.05000000  0.05000000       0.024
   0.25000000  0.05000000  0.05000000       0.024
   0.35000000  0.05000000  0.05000000       0.024
   0.45000000  0.05000000  0.05000000       0.012
  -0.05000000  0.05000000  0.05000000       0.006
   0.15000000  0.15000000  0.05000000       0.024
   0.25000000  0.15000000  0.05000000       0.048
   0.35000000  0.15000000  0.05000000       0.048
  -0.15000000  0.15000000  0.05000000       0.024
   0.25000000  0.25000000  0.05000000       0.024
   0.35000000  0.25000000  0.05000000       0.024
  -0.25000000  0.25000000  0.05000000       0.024
  -0.15000000  0.25000000  0.05000000       0.024
  -0.35000000  0.35000000  0.05000000       0.024
  -0.25000000  0.35000000  0.05000000       0.048
  -0.45000000  0.45000000  0.05000000       0.024
  -0.35000000  0.45000000  0.05000000       0.048
  -0.25000000  0.45000000  0.05000000       0.024
  -0.45000000 -0.45000000  0.05000000       0.024
  -0.35000000 -0.45000000  0.05000000       0.048
  -0.35000000 -0.35000000  0.05000000       0.008
   0.15000000  0.15000000  0.15000000       0.008
   0.25000000  0.15000000  0.15000000       0.024
   0.35000000  0.15000000  0.15000000       0.012
  -0.15000000  0.15000000  0.15000000       0.006
   0.25000000  0.25000000  0.15000000       0.024
  -0.25000000  0.25000000  0.15000000       0.024
  -0.35000000  0.35000000  0.15000000       0.024
  -0.25000000  0.35000000  0.15000000       0.024
  -0.45000000  0.45000000  0.15000000       0.024
  -0.35000000  0.45000000  0.15000000       0.048
  -0.45000000 -0.45000000  0.15000000       0.024
  -0.35000000 -0.45000000  0.15000000       0.024
   0.25000000  0.25000000  0.25000000       0.002
  -0.25000000  0.25000000  0.25000000       0.006
  -0.35000000  0.35000000  0.25000000       0.024
  -0.45000000  0.45000000  0.25000000       0.024
  -0.35000000  0.45000000  0.25000000       0.024
  -0.45000000 -0.45000000  0.25000000       0.024
  -0.35000000  0.35000000  0.35000000       0.006
  -0.45000000  0.45000000  0.35000000       0.024
  -0.45000000 -0.45000000  0.35000000       0.008
  -0.45000000  0.45000000  0.45000000       0.006
 
 position of ions in fractional coordinates (direct lattice) 
   0.00000000  0.00000000  0.00000000
 
 position of ions in cartesian coordinates  (Angst):
   0.00000000  0.00000000  0.00000000
 


--------------------------------------------------------------------------------------------------------


 k-point  1 :   0.0500 0.0500 0.0500  plane waves:     117
 k-point  2 :   0.1500 0.0500 0.0500  plane waves:     115
 k-point  3 :   0.2500 0.0500 0.0500  plane waves:     114
 k-point  4 :   0.3500 0.0500 0.0500  plane waves:     114
 k-point  5 :   0.4500 0.0500 0.0500  plane waves:     114
 k-point  6 :  -0.0500 0.0500 0.0500  plane waves:     119
 k-point  7 :   0.1500 0.1500 0.0500  plane waves:     113
 k-point  8 :   0.2500 0.1500 0.0500  plane waves:     114
 k-point  9 :   0.3500 0.1500 0.0500  plane waves:     114
 k-point 10 :  -0.1500 0.1500 0.0500  plane waves:     117
 k-point 11 :   0.2500 0.2500 0.0500  plane waves:     114
 k-point 12 :   0.3500 0.2500 0.0500  plane waves:     115
 k-point 13 :  -0.2500 0.2500 0.0500  plane waves:     116
 k-point 14 :  -0.1500 0.2500 0.0500  plane waves:     112
 k-point 15 :  -0.3500 0.3500 0.0500  plane waves:     112
 k-point 16 :  -0.2500 0.3500 0.0500  plane waves:     112
 k-point 17 :  -0.4500 0.4500 0.0500  plane waves:     116
 k-point 18 :  -0.3500 0.4500 0.0500  plane waves:     115
 k-point 19 :  -0.2500 0.4500 0.0500  plane waves:     116
 k-point 20 :  -0.4500-0.4500 0.0500  plane waves:     118
 k-point 21 :  -0.3500-0.4500 0.0500  plane waves:     113
 k-point 22 :  -0.3500-0.3500 0.0500  plane waves:     119
 k-point 23 :   0.1500 0.1500 0.1500  plane waves:     119
 k-point 24 :   0.2500 0.1500 0.1500  plane waves:     117
 k-point 25 :   0.3500 0.1500 0.1500  plane waves:     118
 k-point 26 :  -0.1500 0.1500 0.1500  plane waves:     112
 k-point 27 :   0.2500 0.2500 0.1500  plane waves:     117
 k-point 28 :  -0.2500 0.2500 0.1500  plane waves:     114
 k-point 29 :  -0.3500 0.3500 0.1500  plane waves:     113
 k-point 30 :  -0.2500 0.3500 0.1500  plane waves:     116
 k-point 31 :  -0.4500 0.4500 0.1500  plane waves:     113
 k-point 32 :  -0.3500 0.4500 0.1500  plane waves:     114
 k-point 33 :  -0.4500-0.4500 0.1500  plane waves:     113
 k-point 34 :  -0.3500-0.4500 0.1500  plane waves:     115
 k-point 35 :   0.2500 0.2500 0.2500  plane waves:     104
 k-point 36 :  -0.2500 0.2500 0.2500  plane waves:     116
 k-point 37 :  -0.3500 0.3500 0.2500  plane waves:     115
 k-point 38 :  -0.4500 0.4500 0.2500  plane waves:     113
 k-point 39 :  -0.3500 0.4500 0.2500  plane waves:     110
 k-point 40 :  -0.4500-0.4500 0.2500  plane waves:     110
 k-point 41 :  -0.3500 0.3500 0.3500  plane waves:     112
 k-point 42 :  -0.4500 0.4500 0.3500  plane waves:     114
 k-point 43 :  -0.4500-0.4500 0.3500  plane waves:     116
 k-point 44 :  -0.4500 0.4500 0.4500  plane waves:     116

 maximum and minimum number of plane-waves per node :       119      104

 maximum number of plane-waves:       119
 maximum index in each direction: 
   IXMAX=    3   IYMAX=    3   IZMAX=    3
   IXMIN=   -3   IYMIN=   -3   IZMIN=   -3


 serial   3D FFT for wavefunctions
 parallel 3D FFT for charge:
    minimum data exchange during FFTs selected (reduces bandwidth)


 total amount of memory used by VASP MPI-rank0    31846. kBytes
=======================================================================

   base      :      30000. kBytes
   nonl-proj :        762. kBytes
   fftplans  :        142. kBytes
   grid      :        320. kBytes
   one-center:         31. kBytes
   wavefun   :        591. kBytes
 
     INWAV:  cpu time    0.0000: real time    0.0002
 Broyden mixing: mesh for mixing (old mesh)
   NGX =  7   NGY =  7   NGZ =  7
  (NGX  = 20   NGY  = 20   NGZ  = 20)
  gives a total of    343 points

 initial charge density was supplied:
 charge density of overlapping atoms calculated
 number of electron       8.0000000 magnetization       3.0000000
 keeping initial charge density in first step


--------------------------------------------------------------------------------------------------------


 Maximum index for augmentation-charges          749 (set IRDMAX)


--------------------------------------------------------------------------------------------------------


 First call to EWALD:  gamma=   0.786
 Maximum number of real-space cells 3x 3x 3
 Maximum number of reciprocal cells 3x 3x 3

    FEWALD:  cpu time    0.0010: real time    0.0009


--------------------------------------- Iteration      1(   1)  ---------------------------------------


    POTLOK:  cpu time    0.0031: real time    0.0068
    SETDIJ:  cpu time    0.0038: real time    0.0038
     EDDAV:  cpu time    0.1125: real time    0.1244
       DOS:  cpu time    0.0009: real time    0.0013
    --------------------------------------------
      LOOP:  cpu time    0.1202: real time    0.1363

 eigenvalue-minimisations  :  2360
 total energy-change (2. order) : 0.1016044E+02  (-0.2667587E+03)
 number of electron       8.0000000 magnetization       3.0000000
 augmentation part        8.0000000 magnetization       3.0000000

 Free energy of the ion-electron system (eV)
  ---------------------------------------------------
  alpha Z        PSCENC =        60.34603939
  Ewald energy   TEWEN  =      -590.47387226
  -Hartree energ DENC   =      -112.15699037
  -exchange      EXHF   =         0.00000000
  -V(xc)+E(xc)   XCENC  =         5.05168935
  PAW double counting   =       553.75926685     -561.48528711
  entropy T*S    EENTRO =        -0.00045678
  eigenvalues    EBANDS =        60.83920415
  atomic energy  EATOM  =       594.28084496
  Solvation  Ediel_sol  =         0.00000000
  ---------------------------------------------------
  free energy    TOTEN  =        10.16043818 eV

  energy without entropy =       10.16089496  energy(sigma->0) =       10.16059044


--------------------------------------------------------------------------------------------------------




--------------------------------------- Iteration      1(   2)  ---------------------------------------


     EDDAV:  cpu time    0.1019: real time    0.1042
       DOS:  cpu time    0.0008: real time    0.0008
    --------------------------------------------
      LOOP:  cpu time    0.1027: real time    0.1050

 eigenvalue-minimisations  :  2228
 total energy-change (2. order) :-0.1899273E+02  (-0.1750036E+02)
 number of electron       8.0000000 magnetization       3.0000000
 augmentation part        8.0000000 magnetization       3.0000000

 Free energy of the ion-electron system (eV)
  ---------------------------------------------------
  alpha Z        PSCENC =        60.34603939
  Ewald energy   TEWEN  =      -590.47387226
  -Hartree energ DENC   =      -112.15699037
  -exchange      EXHF   =         0.00000000
  -V(xc)+E(xc)   XCENC  =         5.05168935
  PAW double counting   =       553.75926685     -561.48528711
  entropy T*S    EENTRO =         0.00013396
  eigenvalues    EBANDS =        41.84588244
  atomic energy  EATOM  =       594.28084496
  Solvation  Ediel_sol  =         0.00000000
  ---------------------------------------------------
  free energy    TOTEN  =        -8.83229279 eV

  energy without entropy =       -8.83242675  energy(sigma->0) =       -8.83233744


--------------------------------------------------------------------------------------------------------




--------------------------------------- Iteration      1(   3)  ---------------------------------------


     EDDAV:  cpu time    0.1084: real time    0.1111
       DOS:  cpu time    0.0008: real time    0.0008
    --------------------------------------------
      LOOP:  cpu time    0.1093: real time    0.1119

 eigenvalue-minimisations  :  2424
 total energy-change (2. order) :-0.2984995E+00  (-0.2980152E+00)
 number of electron       8.0000000 magnetization       3.0000000
 augmentation part        8.0000000 magnetization       3.0000000

 Free energy of the ion-electron system (eV)
  ---------------------------------------------------
  alpha Z        PSCENC =        60.34603939
  Ewald energy   TEWEN  =      -590.47387226
  -Hartree energ DENC   =      -112.15699037
  -exchange      EXHF   =         0.00000000
  -V(xc)+E(xc)   XCENC  =         5.05168935
  PAW double counting   =       553.75926685     -561.48528711
  entropy T*S    EENTRO =         0.00089550
  eigenvalues    EBANDS =        41.54662144
  atomic energy  EATOM  =       594.28084496
  Solvation  Ediel_sol  =         0.00000000
  ---------------------------------------------------
  free energy    TOTEN  =        -9.13079225 eV

  energy without entropy =       -9.13168774  energy(sigma->0) =       -9.13109075


--------------------------------------------------------------------------------------------------------




--------------------------------------- Iteration      1(   4)  ---------------------------------------


     EDDAV:  cpu time    0.1080: real time    0.1104
       DOS:  cpu time    0.0009: real time    0.0008
    --------------------------------------------
      LOOP:  cpu time    0.1089: real time    0.1112

 eigenvalue-minimisations  :  2400
 total energy-change (2. order) :-0.7965000E-03  (-0.7964617E-03)
 number of electron       8.0000000 magnetization       3.0000000
 augmentation part        8.0000000 magnetization       3.0000000

 Free energy of the ion-electron system (eV)
  ---------------------------------------------------
  alpha Z        PSCENC =        60.34603939
  Ewald energy   TEWEN  =      -590.47387226
  -Hartree energ DENC   =      -112.15699037
  -exchange      EXHF   =         0.00000000
  -V(xc)+E(xc)   XCENC  =         5.05168935
  PAW double counting   =       553.75926685     -561.48528711
  entropy T*S    EENTRO =         0.00090011
  eigenvalues    EBANDS =        41.54582033
  atomic energy  EATOM  =       594.28084496
  Solvation  Ediel_sol  =         0.00000000
  ---------------------------------------------------
  free energy    TOTEN  =        -9.13158875 eV

  energy without entropy =       -9.13248886  energy(sigma->0) =       -9.13188878


--------------------------------------------------------------------------------------------------------




--------------------------------------- Iteration      1(   5)  ---------------------------------------


     EDDAV:  cpu time    0.0938: real time    0.0961
       DOS:  cpu time    0.0009: real time    0.0008
    CHARGE:  cpu time    0.0020: real time    0.0020
    MIXING:  cpu time    0.0002: real time    0.0002
    --------------------------------------------
      LOOP:  cpu time    0.0968: real time    0.0991

 eigenvalue-minimisations  :  1912
 total energy-change (2. order) :-0.3808950E-05  (-0.3809585E-05)
 number of electron       8.0000092 magnetization       1.8576287
 augmentation part        3.6288019 magnetization       1.2250009

 Broyden mixing:
  rms(total) = 0.11174E+01    rms(broyden)= 0.11169E+01
  rms(prec ) = 0.33826E+01
  weight for this iteration     100.00

 Free energy of the ion-electron system (eV)
  ---------------------------------------------------
  alpha Z        PSCENC =        60.34603939
  Ewald energy   TEWEN  =      -590.47387226
  -Hartree energ DENC   =      -112.15699037
  -exchange      EXHF   =         0.00000000
  -V(xc)+E(xc)   XCENC  =         5.05168935
  PAW double counting   =       553.75926685     -561.48528711
  entropy T*S    EENTRO =         0.00090015
  eigenvalues    EBANDS =        41.54581648
  atomic energy  EATOM  =       594.28084496
  Solvation  Ediel_sol  =         0.00000000
  ---------------------------------------------------
  free energy    TOTEN  =        -9.13159255 eV

  energy without entropy =       -9.13249271  energy(sigma->0) =       -9.13189260


--------------------------------------------------------------------------------------------------------




--------------------------------------- Iteration      1(   6)  ---------------------------------------


    POTLOK:  cpu time    0.0026: real time    0.0027
    SETDIJ:  cpu time    0.0031: real time    0.0031
     EDDAV:  cpu time    0.1056: real time    0.1079
       DOS:  cpu time    0.0009: real time    0.0008
    CHARGE:  cpu time    0.0019: real time    0.0019
    MIXING:  cpu time    0.0003: real time    0.0004
    --------------------------------------------
      LOOP:  cpu time    0.1145: real time    0.1169

 eigenvalue-minimisations  :  2364
 total energy-change (2. order) : 0.8228359E+00  (-0.1030976E+01)
 number of electron       8.0000110 magnetization       2.1874462
 augmentation part        4.2788343 magnetization       1.8070112

 Broyden mixing:
  rms(total) = 0.49746E+00    rms(broyden)= 0.49721E+00
  rms(prec ) = 0.72990E+00
  weight for this iteration     100.00

 eigenvalues of (default mixing * dielectric matrix)
  average eigenvalue GAMMA=   0.7073
  0.7073

 Free energy of the ion-electron system (eV)
  ---------------------------------------------------
  alpha Z        PSCENC =        60.34603939
  Ewald energy   TEWEN  =      -590.47387226
  -Hartree energ DENC   =       -95.60645278
  -exchange      EXHF   =         0.00000000
  -V(xc)+E(xc)   XCENC  =         3.93381145
  PAW double counting   =       606.32259091     -612.02101691
  entropy T*S    EENTRO =        -0.00111509
  eigenvalues    EBANDS =        24.91041366
  atomic energy  EATOM  =       594.28084496
  Solvation  Ediel_sol  =         0.00000000
  ---------------------------------------------------
  free energy    TOTEN  =        -8.30875667 eV

  energy without entropy =       -8.30764158  energy(sigma->0) =       -8.30838498


--------------------------------------------------------------------------------------------------------




--------------------------------------- Iteration      1(   7)  ---------------------------------------


    POTLOK:  cpu time    0.0027: real time    0.0028
    SETDIJ:  cpu time    0.0031: real time    0.0031
     EDDAV:  cpu time    0.1082: real time    0.1105
       DOS:  cpu time    0.0009: real time    0.0008
    CHARGE:  cpu time    0.0022: real time    0.0022
    MIXING:  cpu time    0.0002: real time    0.0002
    --------------------------------------------
      LOOP:  cpu time    0.1173: real time    0.1197

 eigenvalue-minimisations  :  2440
 total energy-change (2. order) : 0.6347538E-01  (-0.5693253E-01)
 number of electron       8.0000106 magnetization       2.2516027
 augmentation part        4.1338134 magnetization       1.8410642

 Broyden mixing:
  rms(total) = 0.30026E+00    rms(broyden)= 0.30025E+00
  rms(prec ) = 0.38163E+00
  weight for this iteration     100.00

 eigenvalues of (default mixing * dielectric matrix)
  average eigenvalue GAMMA=   0.7755
  0.9826  0.5683

 Free energy of the ion-electron system (eV)
  ---------------------------------------------------
  alpha Z        PSCENC =        60.34603939
  Ewald energy   TEWEN  =      -590.47387226
  -Hartree energ DENC   =       -97.83168965
  -exchange      EXHF   =         0.00000000
  -V(xc)+E(xc)   XCENC  =         4.32481126
  PAW double counting   =       643.71261433     -651.12031053
  entropy T*S    EENTRO =        -0.00215985
  eigenvalues    EBANDS =        28.51844105
  atomic energy  EATOM  =       594.28084496
  Solvation  Ediel_sol  =         0.00000000
  ---------------------------------------------------
  free energy    TOTEN  =        -8.24528129 eV

  energy without entropy =       -8.24312144  energy(sigma->0) =       -8.24456134


--------------------------------------------------------------------------------------------------------




--------------------------------------- Iteration      1(   8)  ---------------------------------------


    POTLOK:  cpu time    0.0026: real time    0.0026
    SETDIJ:  cpu time    0.0030: real time    0.0030
     EDDAV:  cpu time    0.1086: real time    0.1108
       DOS:  cpu time    0.0008: real time    0.0008
    CHARGE:  cpu time    0.0020: real time    0.0021
    MIXING:  cpu time    0.0002: real time    0.0002
    --------------------------------------------
      LOOP:  cpu time    0.1172: real time    0.1195

 eigenvalue-minimisations  :  2428
 total energy-change (2. order) : 0.3722001E-02  (-0.6818992E-03)
 number of electron       8.0000106 magnetization       2.3739292
 augmentation part        4.1438719 magnetization       1.9546761

 Broyden mixing:
  rms(total) = 0.14794E+00    rms(broyden)= 0.14792E+00
  rms(prec ) = 0.20486E+00
  weight for this iteration     100.00

 eigenvalues of (default mixing * dielectric matrix)
  average eigenvalue GAMMA=   1.2147
  2.2461  0.7952  0.6028

 Free energy of the ion-electron system (eV)
  ---------------------------------------------------
  alpha Z        PSCENC =        60.34603939
  Ewald energy   TEWEN  =      -590.47387226
  -Hartree energ DENC   =       -97.11950406
  -exchange      EXHF   =         0.00000000
  -V(xc)+E(xc)   XCENC  =         4.36257952
  PAW double counting   =       667.13720584     -675.11009559
  entropy T*S    EENTRO =        -0.00101795
  eigenvalues    EBANDS =        28.33626086
  atomic energy  EATOM  =       594.28084496
  Solvation  Ediel_sol  =         0.00000000
  ---------------------------------------------------
  free energy    TOTEN  =        -8.24155929 eV

  energy without entropy =       -8.24054134  energy(sigma->0) =       -8.24121997


--------------------------------------------------------------------------------------------------------




--------------------------------------- Iteration      1(   9)  ---------------------------------------


    POTLOK:  cpu time    0.0025: real time    0.0026
    SETDIJ:  cpu time    0.0030: real time    0.0030
     EDDAV:  cpu time    0.1200: real time    0.1222
       DOS:  cpu time    0.0008: real time    0.0008
    CHARGE:  cpu time    0.0021: real time    0.0021
    MIXING:  cpu time    0.0002: real time    0.0002
    --------------------------------------------
      LOOP:  cpu time    0.1285: real time    0.1309

 eigenvalue-minimisations  :  2752
 total energy-change (2. order) : 0.5720522E-02  (-0.1001167E-02)
 number of electron       8.0000106 magnetization       2.3551944
 augmentation part        4.1576571 magnetization       1.9298596

 Broyden mixing:
  rms(total) = 0.37380E-01    rms(broyden)= 0.37296E-01
  rms(prec ) = 0.40891E-01
  weight for this iteration     100.00

 eigenvalues of (default mixing * dielectric matrix)
  average eigenvalue GAMMA=   1.0821
  2.3028  0.7308  0.7308  0.5640

 Free energy of the ion-electron system (eV)
  ---------------------------------------------------
  alpha Z        PSCENC =        60.34603939
  Ewald energy   TEWEN  =      -590.47387226
  -Hartree energ DENC   =       -95.90954128
  -exchange      EXHF   =         0.00000000
  -V(xc)+E(xc)   XCENC  =         4.46782262
  PAW double counting   =       713.19067409     -722.21850027
  entropy T*S    EENTRO =         0.00212251
  eigenvalues    EBANDS =        28.07857147
  atomic energy  EATOM  =       594.28084496
  Solvation  Ediel_sol  =         0.00000000
  ---------------------------------------------------
  free energy    TOTEN  =        -8.23583877 eV

  energy without entropy =       -8.23796127  energy(sigma->0) =       -8.23654627


--------------------------------------------------------------------------------------------------------




--------------------------------------- Iteration      1(  10)  ---------------------------------------


    POTLOK:  cpu time    0.0026: real time    0.0026
    SETDIJ:  cpu time    0.0030: real time    0.0030
     EDDAV:  cpu time    0.0959: real time    0.0981
       DOS:  cpu time    0.0008: real time    0.0008
    CHARGE:  cpu time    0.0021: real time    0.0021
    MIXING:  cpu time    0.0002: real time    0.0002
    --------------------------------------------
      LOOP:  cpu time    0.1046: real time    0.1069

 eigenvalue-minimisations  :  2020
 total energy-change (2. order) :-0.4737928E-03  (-0.1919368E-04)
 number of electron       8.0000106 magnetization       2.3302040
 augmentation part        4.1555988 magnetization       1.9048314

 Broyden mixing:
  rms(total) = 0.22937E-01    rms(broyden)= 0.22933E-01
  rms(prec ) = 0.24491E-01
  weight for this iteration     100.00

 eigenvalues of (default mixing * dielectric matrix)
  average eigenvalue GAMMA=   1.2493
  2.7499  1.3193  0.6597  0.6597  0.8577

 Free energy of the ion-electron system (eV)
  ---------------------------------------------------
  alpha Z        PSCENC =        60.34603939
  Ewald energy   TEWEN  =      -590.47387226
  -Hartree energ DENC   =       -95.90775736
  -exchange      EXHF   =         0.00000000
  -V(xc)+E(xc)   XCENC  =         4.45073438
  PAW double counting   =       715.44296583     -724.50784444
  entropy T*S    EENTRO =         0.00180460
  eigenvalues    EBANDS =        28.13077233
  atomic energy  EATOM  =       594.28084496
  Solvation  Ediel_sol  =         0.00000000
  ---------------------------------------------------
  free energy    TOTEN  =        -8.23631256 eV

  energy without entropy =       -8.23811716  energy(sigma->0) =       -8.23691409


--------------------------------------------------------------------------------------------------------




--------------------------------------- Iteration      1(  11)  ---------------------------------------


    POTLOK:  cpu time    0.0026: real time    0.0026
    SETDIJ:  cpu time    0.0030: real time    0.0030
     EDDAV:  cpu time    0.1022: real time    0.1044
       DOS:  cpu time    0.0008: real time    0.0008
    CHARGE:  cpu time    0.0022: real time    0.0022
    MIXING:  cpu time    0.0003: real time    0.0002
    --------------------------------------------
      LOOP:  cpu time    0.1111: real time    0.1133

 eigenvalue-minimisations  :  2280
 total energy-change (2. order) :-0.2805465E-03  (-0.5754897E-04)
 number of electron       8.0000106 magnetization       2.3254778
 augmentation part        4.1542795 magnetization       1.8990252

 Broyden mixing:
  rms(total) = 0.41030E-02    rms(broyden)= 0.40963E-02
  rms(prec ) = 0.62030E-02
  weight for this iteration     100.00

 eigenvalues of (default mixing * dielectric matrix)
  average eigenvalue GAMMA=   1.1420
  2.6512  1.3825  0.8713  0.6710  0.6710  0.6053

 Free energy of the ion-electron system (eV)
  ---------------------------------------------------
  alpha Z        PSCENC =        60.34603939
  Ewald energy   TEWEN  =      -590.47387226
  -Hartree energ DENC   =       -95.87786303
  -exchange      EXHF   =         0.00000000
  -V(xc)+E(xc)   XCENC  =         4.41992819
  PAW double counting   =       719.56891186     -728.66259599
  entropy T*S    EENTRO =         0.00113343
  eigenvalues    EBANDS =        28.16088034
  atomic energy  EATOM  =       594.28084496
  Solvation  Ediel_sol  =         0.00000000
  ---------------------------------------------------
  free energy    TOTEN  =        -8.23659311 eV

  energy without entropy =       -8.23772654  energy(sigma->0) =       -8.23697092


--------------------------------------------------------------------------------------------------------




--------------------------------------- Iteration      1(  12)  ---------------------------------------


    POTLOK:  cpu time    0.0025: real time    0.0027
    SETDIJ:  cpu time    0.0030: real time    0.0030
     EDDAV:  cpu time    0.0714: real time    0.0737
       DOS:  cpu time    0.0008: real time    0.0008
    --------------------------------------------
      LOOP:  cpu time    0.0777: real time    0.0801

 eigenvalue-minimisations  :  1120
 total energy-change (2. order) : 0.3043121E-05  (-0.1924028E-05)
 number of electron       8.0000106 magnetization       2.3254778
 augmentation part        4.1542795 magnetization       1.8990252

 Free energy of the ion-electron system (eV)
  ---------------------------------------------------
  alpha Z        PSCENC =        60.34603939
  Ewald energy   TEWEN  =      -590.47387226
  -Hartree energ DENC   =       -95.90357141
  -exchange      EXHF   =         0.00000000
  -V(xc)+E(xc)   XCENC  =         4.41600808
  PAW double counting   =       718.87990423     -727.94438952
  entropy T*S    EENTRO =         0.00103045
  eigenvalues    EBANDS =        28.16141601
  atomic energy  EATOM  =       594.28084496
  Solvation  Ediel_sol  =         0.00000000
  ---------------------------------------------------
  free energy    TOTEN  =        -8.23659006 eV

  energy without entropy =       -8.23762052  energy(sigma->0) =       -8.23693355


--------------------------------------------------------------------------------------------------------




 average (electrostatic) potential at core
  the test charge radii are     1.0103
  (the norm of the test charge is              1.0000)
       1 -43.3468
 
 
 
 E-fermi :   5.7646     XC(G=0): -13.0641     alpha+bet :-13.5341


 spin component 1

 k-point     1 :       0.0500    0.0500    0.0500
  band No.  band energies     occupation 
      1      -2.0504      1.00000
      2       3.2869      1.00000
      3       3.2869      1.00000
      4       3.7938      1.00000
      5       4.6309      1.00000
      6       4.6309      1.00000
      7      28.1284      0.00000
      8      28.1284      0.00000
      9      31.2323      0.00000
     10      32.4467      0.00000
     11      36.1069      0.00000
     12      36.1069      0.00000

 k-point     2 :       0.1500    0.0500    0.0500
  band No.  band energies     occupation 
      1      -0.9387      1.00000
      2       2.9886      1.00000
      3       3.1378      1.00000
      4       4.4574      1.00000
      5       4.5256      1.00000
      6       4.7088      1.00000
      7      23.8957      0.00000
      8      26.2071      0.00000
      9      29.0670      0.00000
     10      31.5080      0.00000
     11      35.8335      0.00000
     12      36.1772      0.00000

 k-point     3 :       0.2500    0.0500    0.0500
  band No.  band energies     occupation 
      1       0.4154      1.00000
      2       2.6607      1.00000
      3       3.2192      1.00000
      4       4.5848      1.00000
      5       4.7862      1.00000
      6       5.3864      1.01119
      7      19.2799      0.00000
      8      24.4773      0.00000
      9      26.6561      0.00000
     10      31.0798      0.00000
     11      34.8963      0.00000
     12      38.1551      0.00000

 k-point     4 :       0.3500    0.0500    0.0500
  band No.  band energies     occupation 
      1       0.9654      1.00000
      2       2.4169      1.00000
      3       4.2729      1.00000
      4       4.7257      1.00000
      5       4.8521      1.00000
      6       6.5176     -0.00000
      7      15.1611      0.00000
      8      23.2889      0.00000
      9      25.0313      0.00000
     10      30.7056      0.00000
     11      34.5682      0.00000
     12      40.4095      0.00000

 k-point     5 :       0.4500    0.0500    0.0500
  band No.  band energies     occupation 
      1       0.9876      1.00000
      2       2.3265      1.00000
      3       4.7433      1.00000
      4       4.8782      1.00000
      5       5.0275      1.00000
      6       7.4697     -0.00000
      7      13.0437      0.00000
      8      22.8661      0.00000
      9      24.4345      0.00000
     10      30.5625      0.00000
     11      34.5373      0.00000
     12      40.3078      0.00000

 k-point     6 :      -0.0500    0.0500    0.0500
  band No.  band energies     occupation 
      1      -2.4516      1.00000
      2       3.4146      1.00000
      3       3.4148      1.00000
      4       3.4655      1.00000
      5       4.5957      1.00000
      6       4.7224      1.00000
      7      29.4626      0.00000
      8      30.4758      0.00000
      9      30.4758      0.00000
     10      34.0773      0.00000
     11      36.0006      0.00000
     12      36.0007      0.00000

 k-point     7 :       0.1500    0.1500    0.0500
  band No.  band energies     occupation 
      1       0.3163      1.00000
      2       2.7649      1.00000
      3       2.7946      1.00000
      4       4.5473      1.00000
      5       4.7950      1.00000
      6       5.4443      1.02299
      7      21.5950      0.00000
      8      22.4849      0.00000
      9      25.8897      0.00000
     10      32.8228      0.00000
     11      36.7354      0.00000
     12      38.2614      0.00000

 k-point     8 :       0.2500    0.1500    0.0500
  band No.  band energies     occupation 
      1       1.3267      1.00000
      2       2.4830      1.00000
      3       3.0293      1.00000
      4       4.6433      1.00000
      5       4.8972      1.00000
      6       6.8267     -0.00000
      7      17.5044      0.00000
      8      20.6414      0.00000
      9      24.1164      0.00000
     10      33.0436      0.00000
     11      37.5221      0.00000
     12      38.9401      0.00000

 k-point     9 :       0.3500    0.1500    0.0500
  band No.  band energies     occupation 
      1       1.4243      1.00000
      2       2.3486      1.00000
      3       3.7657      1.00000
      4       4.7576      1.00000
      5       4.9906      1.00000
      6       8.6180     -0.00000
      7      13.8980      0.00000
      8      19.8102      0.00000
      9      23.2177      0.00000
     10      32.9254      0.00000
     11      38.2173      0.00000
     12      39.1752      0.00000

 k-point    10 :      -0.1500    0.1500    0.0500
  band No.  band energies     occupation 
      1      -1.6636      1.00000
      2       3.2268      1.00000
      3       3.3755      1.00000
      4       3.8720      1.00000
      5       4.3934      1.00000
      6       4.7853      1.00000
      7      26.1736      0.00000
      8      28.8450      0.00000
      9      29.5876      0.00000
     10      33.2806      0.00000
     11      33.5192      0.00000
     12      34.4959      0.00000

 k-point    11 :       0.2500    0.2500    0.0500
  band No.  band energies     occupation 
      1       1.8613      1.00000
      2       2.4136      1.00000
      3       3.0064      1.00000
      4       4.7456      1.00000
      5       4.9808      1.00000
      6       8.9853     -0.00000
      7      15.8771      0.00000
      8      16.8899      0.00000
      9      23.0192      0.00000
     10      34.4120      0.00000
     11      37.2824      0.00000
     12      43.2277      0.00000

 k-point    12 :       0.3500    0.2500    0.0500
  band No.  band energies     occupation 
      1       1.9077      1.00000
      2       2.4549      1.00000
      3       3.0747      1.00000
      4       4.8369      1.00000
      5       4.9802      1.00000
      6      11.1044     -0.00000
      7      13.3360      0.00000
      8      16.1649      0.00000
      9      22.6759      0.00000
     10      34.9481      0.00000
     11      37.2599      0.00000
     12      42.8639      0.00000

 k-point    13 :      -0.2500    0.2500    0.0500
  band No.  band energies     occupation 
      1      -0.3258      1.00000
      2       2.9135      1.00000
      3       3.2784      1.00000
      4       4.3892      1.00000
      5       4.6039      1.00000
      6       4.8591      1.00000
      7      21.5455      0.00000
      8      26.6911      0.00000
      9      28.1156      0.00000
     10      31.4379      0.00000
     11      33.1348      0.00000
     12      35.2436      0.00000

 k-point    14 :      -0.1500    0.2500    0.0500
  band No.  band energies     occupation 
      1      -0.6008      1.00000
      2       3.1592      1.00000
      3       3.1593      1.00000
      4       4.2037      1.00000
      5       4.4255      1.00000
      6       4.9308      1.00000
      7      23.7644      0.00000
      8      24.9981      0.00000
      9      29.6942      0.00000
     10      30.5663      0.00000
     11      33.2600      0.00000
     12      36.5127      0.00000

 k-point    15 :      -0.3500    0.3500    0.0500
  band No.  band energies     occupation 
      1       0.7221      1.00000
      2       2.6135      1.00000
      3       3.7481      1.00000
      4       4.6280      1.00000
      5       5.1008      1.00001
      6       5.4206      1.01769
      7      17.0614      0.00000
      8      24.9906      0.00000
      9      26.3810      0.00000
     10      30.4376      0.00000
     11      33.0580      0.00000
     12      37.0890      0.00000

 k-point    16 :      -0.2500    0.3500    0.0500
  band No.  band energies     occupation 
      1       0.6793      1.00000
      2       2.8044      1.00000
      3       3.1223      1.00000
      4       4.3281      1.00000
      5       4.9883      1.00000
      6       5.5145      1.03536
      7      19.5545      0.00000
      8      22.7166      0.00000
      9      27.8785      0.00000
     10      30.3192      0.00000
     11      33.7796      0.00000
     12      37.1114      0.00000

 k-point    17 :      -0.4500    0.4500    0.0500
  band No.  band energies     occupation 
      1       0.9082      1.00000
      2       2.4321      1.00000
      3       4.3913      1.00000
      4       4.6925      1.00000
      5       5.9740     -0.02934
      6       6.3433     -0.00017
      7      13.6294      0.00000
      8      24.0659      0.00000
      9      25.2296      0.00000
     10      30.0455      0.00000
     11      33.1779      0.00000
     12      38.3402      0.00000

 k-point    18 :      -0.3500    0.4500    0.0500
  band No.  band energies     occupation 
      1       1.2005      1.00000
      2       2.6088      1.00000
      3       3.4839      1.00000
      4       4.5617      1.00000
      5       5.3556      1.00690
      6       6.9588     -0.00000
      7      15.3756      0.00000
      8      21.4647      0.00000
      9      26.2729      0.00000
     10      30.4968      0.00000
     11      34.8847      0.00000
     12      36.8958      0.00000

 k-point    19 :      -0.2500    0.4500    0.0500
  band No.  band energies     occupation 
      1       1.5604      1.00000
      2       2.4671      1.00000
      3       3.1177      1.00000
      4       4.4524      1.00000
      5       5.1371      1.00004
      6       7.2004     -0.00000
      7      17.7071      0.00000
      8      18.5062      0.00000
      9      27.4598      0.00000
     10      30.0963      0.00000
     11      33.6926      0.00000
     12      41.3686      0.00000

 k-point    20 :      -0.4500   -0.4500    0.0500
  band No.  band energies     occupation 
      1       1.2076      1.00000
      2       2.5433      1.00000
      3       3.7275      1.00000
      4       4.5928      1.00000
      5       5.6478      0.91262
      6       8.2724     -0.00000
      7      13.0986      0.00000
      8      21.0118      0.00000
      9      25.7058      0.00000
     10      30.5318      0.00000
     11      36.0467      0.00000
     12      36.2404      0.00000

 k-point    21 :      -0.3500   -0.4500    0.0500
  band No.  band energies     occupation 
      1       1.7755      1.00000
      2       2.5042      1.00000
      3       3.0383      1.00000
      4       4.6728      1.00000
      5       5.2809      1.00165
      6       9.5447     -0.00000
      7      14.1815      0.00000
      8      17.3478      0.00000
      9      26.7748      0.00000
     10      30.7626      0.00000
     11      33.8594      0.00000
     12      40.3959      0.00000

 k-point    22 :      -0.3500   -0.3500    0.0500
  band No.  band energies     occupation 
      1       2.2250      1.00000
      2       2.5252      1.00000
      3       2.5252      1.00000
      4       5.0066      1.00000
      5       5.0068      1.00000
      6      12.5040      0.00000
      7      12.5041      0.00000
      8      15.1013      0.00000
      9      26.8917      0.00000
     10      32.1669      0.00000
     11      32.1669      0.00000
     12      39.9462      0.00000

 k-point    23 :       0.1500    0.1500    0.1500
  band No.  band energies     occupation 
      1       1.5476      1.00000
      2       2.4783      1.00000
      3       2.4783      1.00000
      4       4.7627      1.00000
      5       4.7627      1.00000
      6       6.8439     -0.00000
      7      19.9260      0.00000
      8      19.9260      0.00000
      9      21.5955      0.00000
     10      35.6866      0.00000
     11      39.5958      0.00000
     12      39.5958      0.00000

 k-point    24 :       0.2500    0.1500    0.1500
  band No.  band energies     occupation 
      1       1.9604      1.00000
      2       2.3179      1.00000
      3       2.9298      1.00000
      4       4.8182      1.00000
      5       4.8700      1.00000
      6       8.7863     -0.00000
      7      16.0445      0.00000
      8      18.8726      0.00000
      9      19.9002      0.00000
     10      36.7346      0.00000
     11      40.5405      0.00000
     12      41.8495      0.00000

 k-point    25 :       0.3500    0.1500    0.1500
  band No.  band energies     occupation 
      1       1.8729      1.00000
      2       2.2689      1.00000
      3       3.3712      1.00000
      4       4.8513      1.00000
      5       4.8981      1.00000
      6      10.5896     -0.00000
      7      13.4247      0.00000
      8      18.5141      0.00000
      9      19.4268      0.00000
     10      36.7466      0.00000
     11      41.1497      0.00000
     12      41.9529      0.00000

 k-point    26 :      -0.1500    0.1500    0.1500
  band No.  band energies     occupation 
      1      -0.9283      1.00000
      2       3.4719      1.00000
      3       3.4720      1.00000
      4       3.8887      1.00000
      5       3.9089      1.00000
      6       4.9960      1.00000
      7      25.7369      0.00000
      8      27.3796      0.00000
      9      27.3797      0.00000
     10      29.0949      0.00000
     11      35.8654      0.00000
     12      35.8654      0.00000

 k-point    27 :       0.2500    0.2500    0.1500
  band No.  band energies     occupation 
      1       2.1564      1.00000
      2       2.4640      1.00000
      3       2.8311      1.00000
      4       4.8788      1.00000
      5       4.9079      1.00000
      6      11.4010      0.00000
      7      14.7132      0.00000
      8      15.8831      0.00000
      9      18.7614      0.00000
     10      39.3353      0.00000
     11      41.1092      0.00000
     12      44.6191      0.00000

 k-point    28 :      -0.2500    0.2500    0.1500
  band No.  band energies     occupation 
      1       0.2823      1.00000
      2       3.1772      1.00000
      3       3.3222      1.00000
      4       3.9294      1.00000
      5       4.5171      1.00000
      6       5.2789      1.00159
      7      22.1133      0.00000
      8      25.2181      0.00000
      9      25.4425      0.00000
     10      29.0618      0.00000
     11      35.2568      0.00000
     12      36.5850      0.00000

 k-point    29 :      -0.3500    0.3500    0.1500
  band No.  band energies     occupation 
      1       1.1988      1.00000
      2       2.9242      1.00000
      3       3.0779      1.00000
      4       4.3120      1.00000
      5       5.3459      1.00584
      6       6.1716     -0.00712
      7      17.5829      0.00000
      8      23.4333      0.00000
      9      24.2099      0.00000
     10      30.6354      0.00000
     11      34.1893      0.00000
     12      36.4572      0.00000

 k-point    30 :      -0.2500    0.3500    0.1500
  band No.  band energies     occupation 
      1       1.2564      1.00000
      2       2.6550      1.00000
      3       3.4523      1.00000
      4       4.0692      1.00000
      5       5.0286      1.00000
      6       6.1587     -0.00879
      7      20.1088      0.00000
      8      20.7731      0.00000
      9      26.3151      0.00000
     10      27.7824      0.00000
     11      34.7876      0.00000
     12      40.0108      0.00000

 k-point    31 :      -0.4500    0.4500    0.1500
  band No.  band energies     occupation 
      1       1.3165      1.00000
      2       2.9254      1.00000
      3       3.1231      1.00000
      4       4.3864      1.00000
      5       5.9235      0.01143
      6       8.0926     -0.00000
      7      13.9001      0.00000
      8      22.3716      0.00000
      9      23.5367      0.00000
     10      32.6842      0.00000
     11      33.6434      0.00000
     12      35.4160      0.00000

 k-point    32 :      -0.3500    0.4500    0.1500
  band No.  band energies     occupation 
      1       1.6822      1.00000
      2       2.4264      1.00000
      3       3.2596      1.00000
      4       4.4085      1.00000
      5       5.5051      1.03472
      6       8.1704     -0.00000
      7      16.0513      0.00000
      8      19.2174      0.00000
      9      25.7558      0.00000
     10      29.2422      0.00000
     11      33.7761      0.00000
     12      38.4274      0.00000

 k-point    33 :      -0.4500   -0.4500    0.1500
  band No.  band energies     occupation 
      1       1.6336      1.00000
      2       2.5921      1.00000
      3       3.0771      1.00000
      4       4.5011      1.00000
      5       5.7613      0.51410
      6      10.1258     -0.00000
      7      13.3521      0.00000
      8      18.7352      0.00000
      9      25.3917      0.00000
     10      31.0137      0.00000
     11      32.5112      0.00000
     12      37.1112      0.00000

 k-point    34 :      -0.3500   -0.4500    0.1500
  band No.  band energies     occupation 
      1       2.0670      1.00000
      2       2.1124      1.00000
      3       2.9977      1.00000
      4       4.8994      1.00000
      5       5.4137      1.01623
      6      11.0094     -0.00000
      7      14.5335      0.00000
      8      15.8177      0.00000
      9      27.7835      0.00000
     10      28.7352      0.00000
     11      31.7100      0.00000
     12      37.0694      0.00000

 k-point    35 :       0.2500    0.2500    0.2500
  band No.  band energies     occupation 
      1       2.5064      1.00000
      2       2.5064      1.00000
      3       2.5065      1.00000
      4       4.9182      1.00000
      5       4.9182      1.00000
      6      14.3206      0.00000
      7      14.3206      0.00000
      8      14.3208      0.00000
      9      16.4684      0.00000
     10      44.5827      0.00000
     11      44.5828      0.00000
     12      44.5828      0.00000

 k-point    36 :      -0.2500    0.2500    0.2500
  band No.  band energies     occupation 
      1       1.1229      1.00000
      2       2.7979      1.00000
      3       3.8506      1.00000
      4       3.8507      1.00000
      5       4.5773      1.00000
      6       5.9631     -0.02435
      7      22.7266      0.00000
      8      22.7267      0.00000
      9      23.2598      0.00000
     10      25.5697      0.00000
     11      39.5217      0.00000
     12      39.5218      0.00000

 k-point    37 :      -0.3500    0.3500    0.2500
  band No.  band energies     occupation 
      1       1.6145      1.00000
      2       2.2421      1.00000
      3       3.8901      1.00000
      4       4.2282      1.00000
      5       5.2419      1.00069
      6       7.4841     -0.00000
      7      18.5358      0.00000
      8      20.7670      0.00000
      9      23.2273      0.00000
     10      26.1058      0.00000
     11      37.2081      0.00000
     12      38.4224      0.00000

 k-point    38 :      -0.4500    0.4500    0.2500
  band No.  band energies     occupation 
      1       1.5981      1.00000
      2       2.0943      1.00000
      3       3.8097      1.00000
      4       4.3970      1.00000
      5       5.8368      0.21556
      6      10.0117     -0.00000
      7      14.5632      0.00000
      8      19.6234      0.00000
      9      22.9128      0.00000
     10      28.0937      0.00000
     11      33.7768      0.00000
     12      37.7780      0.00000

 k-point    39 :      -0.3500    0.4500    0.2500
  band No.  band energies     occupation 
      1       1.6993      1.00000
      2       1.7934      1.00000
      3       3.9683      1.00000
      4       4.7602      1.00000
      5       5.5579      1.02827
      6       9.8221     -0.00000
      7      16.9125      0.00000
      8      17.4198      0.00000
      9      24.0937      0.00000
     10      25.7305      0.00000
     11      33.2939      0.00000
     12      38.6365      0.00000

 k-point    40 :      -0.4500   -0.4500    0.2500
  band No.  band energies     occupation 
      1       1.5889      1.00000
      2       1.7388      1.00000
      3       3.9141      1.00000
      4       5.0305      1.00000
      5       5.7154      0.70123
      6      12.3660      0.00000
      7      13.9638      0.00000
      8      16.6916      0.00000
      9      24.3418      0.00000
     10      26.6537      0.00000
     11      31.1178      0.00000
     12      38.4511      0.00000

 k-point    41 :      -0.3500    0.3500    0.3500
  band No.  band energies     occupation 
      1       1.5275      1.00000
      2       1.7054      1.00000
      3       4.6963      1.00000
      4       4.6964      1.00000
      5       5.2856      1.00183
      6       9.3619     -0.00000
      7      18.6328      0.00000
      8      18.6328      0.00000
      9      21.9494      0.00000
     10      23.9353      0.00000
     11      33.0669      0.00000
     12      41.8962      0.00000

 k-point    42 :      -0.4500    0.4500    0.3500
  band No.  band energies     occupation 
      1       1.3445      1.00000
      2       1.3967      1.00000
      3       4.8600      1.00000
      4       5.0551      1.00000
      5       5.7530      0.54897
      6      12.0389      0.00000
      7      15.6217      0.00000
      8      17.3630      0.00000
      9      22.2128      0.00000
     10      24.3400      0.00000
     11      29.7312      0.00000
     12      41.9352      0.00000

 k-point    43 :      -0.4500   -0.4500    0.3500
  band No.  band energies     occupation 
      1       1.2197      1.00000
      2       1.2197      1.00000
      3       4.9616      1.00000
      4       5.6495      0.90879
      5       5.6497      0.90813
      6      14.6581      0.00000
      7      14.6582      0.00000
      8      15.4775      0.00000
      9      23.1374      0.00000
     10      23.1374      0.00000
     11      28.0867      0.00000
     12      42.4993      0.00000

 k-point    44 :      -0.4500    0.4500    0.4500
  band No.  band energies     occupation 
      1       1.0467      1.00000
      2       1.0484      1.00000
      3       5.6234      0.96199
      4       5.6236      0.96163
      5       5.7306      0.64150
      6      14.2592      0.00000
      7      15.9879      0.00000
      8      15.9879      0.00000
      9      21.4160      0.00000
     10      22.3013      0.00000
     11      27.0109      0.00000
     12      44.4709      0.00000

 spin component 2

 k-point     1 :       0.0500    0.0500    0.0500
  band No.  band energies     occupation 
      1      -1.8499      1.00000
      2       5.3454      1.00579
      3       5.3454      1.00579
      4       5.9202      0.01574
      5       7.3925     -0.00000
      6       7.3925     -0.00000
      7      28.2580      0.00000
      8      28.2580      0.00000
      9      30.9949      0.00000
     10      33.3807      0.00000
     11      36.4555      0.00000
     12      36.4555      0.00000

 k-point     2 :       0.1500    0.0500    0.0500
  band No.  band energies     occupation 
      1      -0.7063      1.00000
      2       4.9832      1.00000
      3       5.1265      1.00003
      4       6.6332     -0.00000
      5       7.2151     -0.00000
      6       7.4886     -0.00000
      7      24.4002      0.00000
      8      26.4923      0.00000
      9      29.9122      0.00000
     10      31.4269      0.00000
     11      36.4835      0.00000
     12      36.5139      0.00000

 k-point     3 :       0.2500    0.0500    0.0500
  band No.  band energies     occupation 
      1       0.8781      1.00000
      2       4.5843      1.00000
      3       4.9139      1.00000
      4       7.2240     -0.00000
      5       7.5927     -0.00000
      6       7.5960     -0.00000
      7      20.0937      0.00000
      8      24.7828      0.00000
      9      27.4200      0.00000
     10      31.2609      0.00000
     11      35.5195      0.00000
     12      38.4164      0.00000

 k-point     4 :       0.3500    0.0500    0.0500
  band No.  band energies     occupation 
      1       2.0809      1.00000
      2       4.2889      1.00000
      3       5.3332      1.00466
      4       7.3363     -0.00000
      5       7.6920     -0.00000
      6       8.5575     -0.00000
      7      16.3001      0.00000
      8      23.5633      0.00000
      9      25.7233      0.00000
     10      31.0385      0.00000
     11      35.1992      0.00000
     12      40.5603      0.00000

 k-point     5 :       0.4500    0.0500    0.0500
  band No.  band energies     occupation 
      1       2.3625      1.00000
      2       4.1803      1.00000
      3       5.9648     -0.02521
      4       7.3825     -0.00000
      5       7.7319     -0.00000
      6       9.0910     -0.00000
      7      14.4951      0.00000
      8      23.1225      0.00000
      9      25.0898      0.00000
     10      30.9451      0.00000
     11      35.1848      0.00000
     12      40.3749      0.00000

 k-point     6 :      -0.0500    0.0500    0.0500
  band No.  band energies     occupation 
      1      -2.2548      1.00000
      2       5.4985      1.03398
      3       5.4987      1.03400
      4       5.5650      1.02490
      5       7.3512     -0.00000
      6       7.5157     -0.00000
      7      29.3576      0.00000
      8      30.3393      0.00000
      9      30.3393      0.00000
     10      34.4645      0.00000
     11      36.8879      0.00000
     12      36.8881      0.00000

[...]
      4       7.7815     -0.00000
      5       7.7815     -0.00000
      6      15.3033      0.00000
      7      15.3033      0.00000
      8      15.3035      0.00000
      9      17.2728      0.00000
     10      44.3710      0.00000
     11      44.3710      0.00000
     12      44.3711      0.00000

 k-point    36 :      -0.2500    0.2500    0.2500
  band No.  band energies     occupation 
      1       1.7331      1.00000
      2       5.0564      1.00000
      3       5.8736      0.10631
      4       5.8737      0.10587
      5       6.8108     -0.00000
      6       8.3672     -0.00000
      7      23.4277      0.00000
      8      23.4277      0.00000
      9      23.8443      0.00000
     10      26.0440      0.00000
     11      39.8879      0.00000
     12      39.8879      0.00000

 k-point    37 :      -0.3500    0.3500    0.2500
  band No.  band energies     occupation 
      1       2.7570      1.00000
      2       4.2986      1.00000
      3       5.9198      0.01629
      4       6.3441     -0.00016
      5       7.5472     -0.00000
      6       9.2537     -0.00000
      7      19.3567      0.00000
      8      21.4389      0.00000
      9      23.8512      0.00000
     10      26.6141      0.00000
     11      37.9381      0.00000
     12      38.9122      0.00000

 k-point    38 :      -0.4500    0.4500    0.2500
  band No.  band energies     occupation 
      1       3.2751      1.00000
      2       3.8858      1.00000
      3       5.8291      0.24204
      4       6.5548     -0.00000
      5       8.2338     -0.00000
      6      11.2157     -0.00000
      7      15.6035      0.00000
      8      20.2375      0.00000
      9      23.5628      0.00000
     10      28.4893      0.00000
     11      34.6418      0.00000
     12      38.2674      0.00000

 k-point    39 :      -0.3500    0.4500    0.2500
  band No.  band energies     occupation 
      1       3.2622      1.00000
      2       3.7498      1.00000
      3       5.9846     -0.03264
      4       6.9295     -0.00000
      5       7.9061     -0.00000
      6      11.0796     -0.00000
      7      17.7562      0.00000
      8      18.1364      0.00000
      9      24.7018      0.00000
     10      26.2638      0.00000
     11      34.1270      0.00000
     12      39.1460      0.00000

 k-point    40 :      -0.4500   -0.4500    0.2500
  band No.  band energies     occupation 
      1       3.4302      1.00000
      2       3.5317      1.00000
      3       5.8909      0.06644
      4       7.2533     -0.00000
      5       8.0805     -0.00000
      6      13.3283      0.00000
      7      14.9503      0.00000
      8      17.4132      0.00000
      9      24.9336      0.00000
     10      27.0926      0.00000
     11      32.0846      0.00000
     12      38.9621      0.00000

 k-point    41 :      -0.3500    0.3500    0.3500
  band No.  band energies     occupation 
      1       3.0648      1.00000
      2       3.7130      1.00000
      3       6.8123     -0.00000
      4       6.8125     -0.00000
      5       7.6118     -0.00000
      6      10.5995     -0.00000
      7      19.2410      0.00000
      8      19.2411      0.00000
      9      22.8110      0.00000
     10      24.5886      0.00000
     11      33.9099      0.00000
     12      42.3332      0.00000

 k-point    42 :      -0.4500    0.4500    0.3500
  band No.  band energies     occupation 
      1       3.1354      1.00000
      2       3.2810      1.00000
      3       7.0331     -0.00000
      4       7.2312     -0.00000
      5       8.1390     -0.00000
      6      12.9128      0.00000
      7      16.3241      0.00000
      8      17.8794      0.00000
      9      23.0578      0.00000
     10      24.9741      0.00000
     11      30.7212      0.00000
     12      42.3523      0.00000

 k-point    43 :      -0.4500   -0.4500    0.3500
  band No.  band energies     occupation 
      1       3.0733      1.00000
      2       3.0733      1.00000
      3       7.1326     -0.00000
      4       7.9944     -0.00000
      5       7.9948     -0.00000
      6      15.3062      0.00000
      7      15.3064      0.00000
      8      16.0527      0.00000
      9      23.8762      0.00000
     10      23.8763      0.00000
     11      29.1752      0.00000
     12      42.9036      0.00000

 k-point    44 :      -0.4500    0.4500    0.4500
  band No.  band energies     occupation 
      1       2.8866      1.00000
      2       2.9214      1.00000
      3       7.9607     -0.00000
      4       7.9610     -0.00000
      5       8.1181     -0.00000
      6      14.7852      0.00000
      7      16.3641      0.00000
      8      16.3643      0.00000
      9      22.4224      0.00000
     10      23.1654      0.00000
     11      28.1279      0.00000
     12      44.7809      0.00000


--------------------------------------------------------------------------------------------------------


 soft charge-density along one line, spin component           1
         0         1         2         3         4         5         6         7         8         9
 total charge-density along one line
 
 soft charge-density along one line, spin component           2
         0         1         2         3         4         5         6         7         8         9
 total charge-density along one line
 
 pseudopotential strength for first ion, spin component:           1
 -5.679   0.000   0.000   0.000   0.000   0.000   0.000   0.000   0.000   0.000  -6.207   0.000   0.000   0.000   0.000   0.000
  0.000   0.000  -5.679   0.000  -0.000   0.000   0.000   0.000   0.000   0.000   0.000   0.000  -6.207   0.000  -0.000   0.000
  0.000   0.000  -0.000   0.000  -5.825   0.000  -0.000   0.000  -0.000   0.000   0.000   0.000  -0.000   0.000  -6.350   0.000
  0.000   0.000   0.000   0.000  -0.000   0.000  -5.679   0.000  -0.000   0.000   0.000   0.000   0.000   0.000  -0.000   0.000
  0.000   0.000   0.000   0.000  -0.000   0.000  -0.000   0.000  -5.825   0.000   0.000   0.000   0.000   0.000  -0.000   0.000
 -6.207   0.000   0.000   0.000   0.000   0.000   0.000   0.000   0.000   0.000  -6.694   0.000   0.000   0.000   0.000   0.000
  0.000   0.000  -6.207   0.000  -0.000   0.000   0.000   0.000   0.000   0.000   0.000   0.000  -6.694   0.000  -0.000   0.000
  0.000   0.000  -0.000   0.000  -6.350   0.000  -0.000   0.000  -0.000   0.000   0.000   0.000  -0.000   0.000  -6.832   0.000
  0.000   0.000   0.000   0.000  -0.000   0.000  -6.207   0.000  -0.000   0.000   0.000   0.000   0.000   0.000  -0.000   0.000
  0.000   0.000   0.000   0.000  -0.000   0.000  -0.000   0.000  -6.350   0.000   0.000   0.000   0.000   0.000  -0.000   0.000
 -0.000   0.000  -0.000   0.000   0.000   0.000  -0.000   0.000  -0.000   0.000  -0.000   0.000  -0.000   0.000   0.000   0.000
 -0.000   0.000  -0.000   0.000   0.000   0.000  -0.000   0.000  -0.000   0.000  -0.000   0.000  -0.000   0.000   0.000   0.000
 -0.000   0.000  -0.000   0.000   0.000   0.000  -0.000   0.000   0.000   0.000  -0.000   0.000  -0.000   0.000   0.000   0.000
 -0.000   0.000  -0.000   0.000  -0.000   0.000  -0.000   0.000   0.000   0.000  -0.000   0.000  -0.000   0.000  -0.000   0.000
 -0.000   0.000  -0.000   0.000   0.000   0.000  -0.000   0.000  -0.000   0.000  -0.000   0.000  -0.000   0.000   0.000   0.000
 -0.000   0.000  -0.000   0.000   0.000   0.000  -0.000   0.000   0.000   0.000  -0.000   0.000  -0.000   0.000   0.000   0.000
 -0.000   0.000  -0.000   0.000  -0.000   0.000  -0.000   0.000   0.000   0.000  -0.000   0.000  -0.000   0.000  -0.000   0.000
 -0.000   0.000  -0.000   0.000   0.000   0.000  -0.000   0.000  -0.000   0.000  -0.000   0.000  -0.000   0.000   0.000   0.000
 pseudopotential strength for first ion, spin component:           2
 -4.100   0.000  -0.000   0.000   0.000   0.000  -0.000   0.000  -0.000   0.000  -4.678   0.000  -0.000   0.000   0.000   0.000
 -0.000   0.000  -4.100   0.000  -0.000   0.000  -0.000   0.000   0.000   0.000  -0.000   0.000  -4.678   0.000  -0.000   0.000
  0.000   0.000  -0.000   0.000  -3.908   0.000  -0.000   0.000  -0.000   0.000   0.000   0.000  -0.000   0.000  -4.490   0.000
 -0.000   0.000  -0.000   0.000  -0.000   0.000  -4.100   0.000  -0.000   0.000  -0.000   0.000  -0.000   0.000  -0.000   0.000
 -0.000   0.000   0.000   0.000  -0.000   0.000  -0.000   0.000  -3.908   0.000  -0.000   0.000   0.000   0.000  -0.000   0.000
 -4.678   0.000  -0.000   0.000   0.000   0.000  -0.000   0.000  -0.000   0.000  -5.213   0.000  -0.000   0.000   0.000   0.000
 -0.000   0.000  -4.678   0.000  -0.000   0.000  -0.000   0.000   0.000   0.000  -0.000   0.000  -5.213   0.000  -0.000   0.000
  0.000   0.000  -0.000   0.000  -4.490   0.000  -0.000   0.000  -0.000   0.000   0.000   0.000  -0.000   0.000  -5.029   0.000
 -0.000   0.000  -0.000   0.000  -0.000   0.000  -4.678   0.000  -0.000   0.000  -0.000   0.000  -0.000   0.000  -0.000   0.000
 -0.000   0.000   0.000   0.000  -0.000   0.000  -0.000   0.000  -4.490   0.000  -0.000   0.000   0.000   0.000  -0.000   0.000
  0.000   0.000   0.000   0.000  -0.000   0.000   0.000   0.000  -0.000   0.000   0.000   0.000   0.000   0.000  -0.000   0.000
  0.000   0.000   0.000   0.000  -0.000   0.000   0.000   0.000  -0.000   0.000   0.000   0.000   0.000   0.000  -0.000   0.000
 -0.000   0.000  -0.000   0.000   0.000   0.000  -0.000   0.000   0.000   0.000  -0.000   0.000  -0.000   0.000   0.000   0.000
 -0.000   0.000  -0.000   0.000  -0.000   0.000  -0.000   0.000  -0.000   0.000  -0.000   0.000  -0.000   0.000  -0.000   0.000
 -0.000   0.000  -0.000   0.000   0.000   0.000  -0.000   0.000  -0.000   0.000  -0.000   0.000  -0.000   0.000   0.000   0.000
 -0.000   0.000  -0.000   0.000   0.000   0.000  -0.000   0.000   0.000   0.000  -0.000   0.000  -0.000   0.000   0.000   0.000
 -0.000   0.000  -0.000   0.000  -0.000   0.000  -0.000   0.000  -0.000   0.000  -0.000   0.000  -0.000   0.000  -0.000   0.000
 -0.000   0.000  -0.000   0.000   0.000   0.000  -0.000   0.000  -0.000   0.000  -0.000   0.000  -0.000   0.000   0.000   0.000
 total augmentation occupancy for first ion, spin component:           1
  2.397   0.000   0.000   0.000  -0.000  -1.367   0.000  -0.000   0.000  -0.000   0.000   0.000   0.000   0.000   0.000   0.000
  0.000   2.397  -0.000  -0.000  -0.000  -0.000  -1.367  -0.000   0.000  -0.000   0.000  -0.000   0.000   0.000   0.000   0.000
  0.000   0.000   3.432  -0.000   0.000  -0.000   0.000  -2.200   0.000   0.000  -0.000   0.000   0.000   0.000   0.000   0.000
  0.000  -0.000  -0.000   2.397   0.000   0.000   0.000  -0.000  -1.367   0.000   0.000  -0.000   0.000   0.000   0.000   0.000
  0.000  -0.000   0.000   0.000   3.432  -0.000   0.000   0.000  -0.000  -2.200   0.000  -0.000   0.000   0.000   0.000   0.000
 -1.367   0.000  -0.000   0.000  -0.000   1.734   0.000   0.000   0.000  -0.000  -0.000  -0.000   0.000   0.000   0.000   0.000
  0.000  -1.367  -0.000   0.000   0.000  -0.000   1.734  -0.000   0.000   0.000  -0.000  -0.000   0.000   0.000   0.000   0.000
  0.000  -0.000  -2.200  -0.000   0.000  -0.000  -0.000   2.227  -0.000   0.000   0.000  -0.000   0.000   0.000   0.000   0.000
  0.000   0.000   0.000  -1.367  -0.000  -0.000   0.000  -0.000   1.734  -0.000   0.000  -0.000   0.000   0.000   0.000   0.000
 -0.000   0.000   0.000   0.000  -2.200  -0.000   0.000   0.000  -0.000   2.227   0.000   0.000   0.000   0.000   0.000   0.000
  0.000   0.000  -0.000   0.000   0.000  -0.000  -0.000   0.000   0.000   0.000   2.418  -0.284   0.000   0.000   0.000   0.000
  0.000  -0.000   0.000  -0.000   0.000  -0.000  -0.000  -0.000  -0.000   0.000  -0.284   0.039   0.000   0.000   0.000   0.000
  0.000   0.000   0.000   0.000   0.000   0.000   0.000   0.000   0.000   0.000   0.000   0.000   0.288   0.000   0.000  -0.025
  0.000   0.000   0.000   0.000   0.000   0.000   0.000   0.000   0.000   0.000   0.000   0.000   0.000   0.288   0.000  -0.000
  0.000   0.000   0.000   0.000   0.000   0.000   0.000   0.000   0.000   0.000   0.000   0.000   0.000   0.000   0.288  -0.000
  0.000   0.000   0.000   0.000   0.000   0.000   0.000   0.000   0.000   0.000   0.000   0.000  -0.025  -0.000   0.000   0.002
  0.000   0.000   0.000   0.000   0.000   0.000   0.000   0.000   0.000   0.000   0.000   0.000   0.000  -0.025  -0.000   0.000
  0.000   0.000   0.000   0.000   0.000   0.000   0.000   0.000   0.000   0.000   0.000   0.000  -0.000  -0.000  -0.025  -0.000
 total augmentation occupancy for first ion, spin component:           2
  2.041   0.000   0.000   0.000  -0.000  -0.846   0.000  -0.000  -0.000   0.000   0.000   0.000   0.000   0.000   0.000   0.000
  0.000   2.041   0.000   0.000  -0.000  -0.000  -0.846  -0.000   0.000   0.000  -0.000  -0.000   0.000   0.000   0.000   0.000
  0.000   0.000   2.889   0.000   0.000   0.000   0.000  -1.226   0.000   0.000   0.000  -0.000   0.000   0.000   0.000   0.000
  0.000   0.000  -0.000   2.041   0.000   0.000   0.000  -0.000  -0.846   0.000   0.000   0.000   0.000   0.000   0.000   0.000
  0.000   0.000   0.000   0.000   2.889   0.000   0.000   0.000   0.000  -1.226   0.000  -0.000   0.000   0.000   0.000   0.000
 -0.846   0.000   0.000   0.000   0.000   0.101  -0.000   0.000   0.000   0.000   0.000   0.000   0.000   0.000   0.000   0.000
 -0.000  -0.846   0.000  -0.000   0.000  -0.000   0.101   0.000   0.000   0.000   0.000  -0.000   0.000   0.000   0.000   0.000
 -0.000  -0.000  -1.226  -0.000   0.000   0.000  -0.000   0.276   0.000  -0.000  -0.000   0.000   0.000   0.000   0.000   0.000
 -0.000   0.000  -0.000  -0.846  -0.000  -0.000  -0.000   0.000   0.101  -0.000   0.000   0.000   0.000   0.000   0.000   0.000
 -0.000   0.000   0.000  -0.000  -1.226   0.000  -0.000  -0.000  -0.000   0.276   0.000   0.000   0.000   0.000   0.000   0.000
  0.000  -0.000   0.000   0.000   0.000   0.000   0.000  -0.000   0.000   0.000  -0.345   0.104   0.000   0.000   0.000   0.000
  0.000  -0.000  -0.000   0.000   0.000   0.000  -0.000   0.000  -0.000   0.000   0.104  -0.019   0.000   0.000   0.000   0.000
  0.000   0.000   0.000   0.000   0.000   0.000   0.000   0.000   0.000   0.000   0.000   0.000  -0.035   0.000   0.000   0.006
  0.000   0.000   0.000   0.000   0.000   0.000   0.000   0.000   0.000   0.000   0.000   0.000   0.000  -0.035   0.000   0.000
  0.000   0.000   0.000   0.000   0.000   0.000   0.000   0.000   0.000   0.000   0.000   0.000   0.000   0.000  -0.035   0.000
  0.000   0.000   0.000   0.000   0.000   0.000   0.000   0.000   0.000   0.000   0.000   0.000   0.006   0.000  -0.000  -0.001
  0.000   0.000   0.000   0.000   0.000   0.000   0.000   0.000   0.000   0.000   0.000   0.000   0.000   0.006   0.000  -0.000
  0.000   0.000   0.000   0.000   0.000   0.000   0.000   0.000   0.000   0.000   0.000   0.000  -0.000   0.000   0.006  -0.000


------------------------ aborting loop because EDIFF is reached ----------------------------------------


    CHARGE:  cpu time    0.0024: real time    0.0023
    FORLOC:  cpu time    0.0000: real time    0.0001
    FORNL :  cpu time    0.0050: real time    0.0049
    STRESS:  cpu time    0.0182: real time    0.0183
    FORCOR:  cpu time    0.0021: real time    0.0021
    FORHAR:  cpu time    0.0003: real time    0.0003
    MIXING:  cpu time    0.0004: real time    0.0003
    OFIELD:  cpu time    0.0000: real time    0.0000

  FORCE on cell =-STRESS in cart. coord.  units (eV):
  Direction    XX          YY          ZZ          XY          YZ          ZX
  --------------------------------------------------------------------------------------
  Alpha Z    60.34604    60.34604    60.34604
  Ewald    -196.82462  -196.82462  -196.82462     0.00000     0.00000    -0.00000
  Hartree    31.97621    31.97621    31.97621    -0.00000    -0.00000    -0.00000
  E(xc)     -39.80777   -39.80777   -39.80777     0.00013     0.00013     0.00013
  Local      58.79301    58.79301    58.79301    -0.00028    -0.00028    -0.00028
  n-local   -27.41315   -26.40872   -25.46030     1.14709    -0.69408    -1.37996
  augment    38.75281    38.75281    38.75281     0.00052     0.00052     0.00052
  Kinetic    73.45523    72.78730    72.52004    -2.41606     1.98047     1.43150
  Fock        0.00000     0.00000     0.00000     0.00000     0.00000     0.00000
  -------------------------------------------------------------------------------------
  Total      -0.27086    -0.27086    -0.27086     0.00000     0.00000     0.00000
  in kB     -37.89140   -37.89140   -37.89140     0.00000     0.00000     0.00000
  external pressure =      -37.89 kB  Pullay stress =        0.00 kB


 VOLUME and BASIS-vectors are now :
 -----------------------------------------------------------------------------
  energy-cutoff  :      268.00
  volume of cell :       11.45
      direct lattice vectors                 reciprocal lattice vectors
    -1.419990000  1.419990000  1.419990000     0.000000000  0.352115156  0.352115156
     1.419990000 -1.419990000  1.419990000     0.352115156  0.000000000  0.352115156
     1.419990000  1.419990000 -1.419990000     0.352115156  0.352115156  0.000000000

  length of vectors
     2.459494826  2.459494826  2.459494826     0.497966029  0.497966029  0.497966029


 FORCES acting on ions
    electron-ion (+dipol)            ewald-force                    non-local-force                 convergence-correction
 -----------------------------------------------------------------------------------------------
   0.620E-14 0.922E-14 0.842E-14   0.151E-14 -.129E-14 0.124E-14   0.000E+00 0.000E+00 0.000E+00   0.167E-13 0.117E-13 0.146E-13
 -----------------------------------------------------------------------------------------------
   0.620E-14 0.922E-14 0.842E-14   0.151E-14 -.129E-14 0.124E-14   0.000E+00 0.000E+00 0.000E+00   0.167E-13 0.117E-13 0.146E-13
 
 
 POSITION                                       TOTAL-FORCE (eV/Angst)
 -----------------------------------------------------------------------------------
      0.00000      0.00000      0.00000        -0.000000      0.000000     -0.000000
 -----------------------------------------------------------------------------------
    total drift:                                0.000000      0.000000      0.000000


--------------------------------------------------------------------------------------------------------



  FREE ENERGIE OF THE ION-ELECTRON SYSTEM (eV)
  ---------------------------------------------------
  free  energy   TOTEN  =        -8.23659006 eV

  energy  without entropy=       -8.23762052  energy(sigma->0) =       -8.23693355
 


--------------------------------------------------------------------------------------------------------


    POTLOK:  cpu time    0.0058: real time    0.0065


--------------------------------------------------------------------------------------------------------


 writing wavefunctions
     LOOP+:  cpu time    1.3952: real time    1.4425
    4ORBIT:  cpu time    0.0000: real time    0.0000

 total amount of memory used by VASP MPI-rank0    31846. kBytes
=======================================================================

   base      :      30000. kBytes
   nonl-proj :        762. kBytes
   fftplans  :        142. kBytes
   grid      :        320. kBytes
   one-center:         31. kBytes
   wavefun   :        591. kBytes
 
  
  
 General timing and accounting informations for this job:
 ========================================================
  
                  Total CPU time used (sec):        1.654
                            User time (sec):        1.364
                          System time (sec):        0.290
                         Elapsed time (sec):        4.444
  
                   Maximum memory used (kb):       57924.
                   Average memory used (kb):           0.
  
                          Minor page faults:        20442
                          Major page faults:           68
                 Voluntary context switches:         2181
