<?xml version="1.0" encoding="ISO-8859-1"?>
<modeling>
 <generator>
  <i name="program" type="string">vasp </i>
  <i name="version" type="string">5.4.4.18Apr17-6-g9f103f2a35  </i>
  <i name="subversion" type="string">(build Jul 01 2019 03:25:34) complex            parallel </i>
  <i name="platform" type="string">LinuxIFC </i>
  <i name="date" type="string">2020 07 08 </i>
  <i name="time" type="string">18:39:00 </i>
 </generator>
 <incar>
  <i type="string" name="SYSTEM"> bcc Fe</i>
  <i type="string" name="PREC">normal</i>
  <i type="int" name="ISPIN">     2</i>
  <i name="EDIFF">      0.00010000</i>
  <i name="ENCUT">    268.00000000</i>
  <v name="MAGMOM">      3.00000000</v>
  <v type="int" name="KPOINT_BSE">    -1     0     0     0</v>
 </incar>
 <structure name="primitive_cell" >
  <crystal>
   <varray name="basis" >
    <v>      -1.41999000       1.41999000       1.41999000 </v>
    <v>       1.41999000      -1.41999000       1.41999000 </v>
    <v>       1.41999000       1.41999000      -1.41999000 </v>
   </varray>
   <i name="volume">     11.45291003 </i>
   <varray name="rec_basis" >
    <v>       0.00000000       0.35211516       0.35211516 </v>
    <v>       0.35211516       0.00000000       0.35211516 </v>
    <v>       0.35211516       0.35211516       0.00000000 </v>
   </varray>
  </crystal>
  <varray name="positions" >
   <v>       0.00000000       0.00000000       0.00000000 </v>
  </varray>
 </structure>
 <varray name="primitive_index" >
  <v type="int" >        1 </v>
 </varray>
 <kpoints>
  <generation param="Monkhorst-Pack">
   <v type="int" name="divisions">      10       10       10 </v>
   <v name="usershift">      0.00000000       0.00000000       0.00000000 </v>
   <v name="genvec1">      0.10000000       0.00000000       0.00000000 </v>
   <v name="genvec2">      0.00000000       0.10000000       0.00000000 </v>
   <v name="genvec3">      0.00000000       0.00000000       0.10000000 </v>
   <v name="shift">      0.50000000       0.50000000       0.50000000 </v>
  </generation>
  <varray name="kpointlist" >
   <v>       0.05000000       0.05000000       0.05000000 </v>
   <v>       0.15000000       0.05000000       0.05000000 </v>
   <v>       0.25000000       0.05000000       0.05000000 </v>
   <v>       0.35000000       0.05000000       0.05000000 </v>
   <v>       0.45000000       0.05000000       0.05000000 </v>
   <v>      -0.05000000       0.05000000       0.05000000 </v>
   <v>       0.15000000       0.15000000       0.05000000 </v>
   <v>       0.25000000       0.15000000       0.05000000 </v>
   <v>       0.35000000       0.15000000       0.05000000 </v>
   <v>      -0.15000000       0.15000000       0.05000000 </v>
   <v>       0.25000000       0.25000000       0.05000000 </v>
   <v>       0.35000000       0.25000000       0.05000000 </v>
   <v>      -0.25000000       0.25000000       0.05000000 </v>
   <v>      -0.15000000       0.25000000       0.05000000 </v>
   <v>      -0.35000000       0.35000000       0.05000000 </v>
   <v>      -0.25000000       0.35000000       0.05000000 </v>
   <v>      -0.45000000       0.45000000       0.05000000 </v>
   <v>      -0.35000000       0.45000000       0.05000000 </v>
   <v>      -0.25000000       0.45000000       0.05000000 </v>
   <v>      -0.45000000      -0.45000000       0.05000000 </v>
   <v>      -0.35000000      -0.45000000       0.05000000 </v>
   <v>      -0.35000000      -0.35000000       0.05000000 </v>
   <v>       0.15000000       0.15000000       0.15000000 </v>
   <v>       0.25000000       0.15000000       0.15000000 </v>
   <v>       0.35000000       0.15000000       0.15000000 </v>
   <v>      -0.15000000       0.15000000       0.15000000 </v>
   <v>       0.25000000       0.25000000       0.15000000 </v>
   <v>      -0.25000000       0.25000000       0.15000000 </v>
   <v>      -0.35000000       0.35000000       0.15000000 </v>
   <v>      -0.25000000       0.35000000       0.15000000 </v>
   <v>      -0.45000000       0.45000000       0.15000000 </v>
   <v>      -0.35000000       0.45000000       0.15000000 </v>
   <v>      -0.45000000      -0.45000000       0.15000000 </v>
   <v>      -0.35000000      -0.45000000       0.15000000 </v>
   <v>       0.25000000       0.25000000       0.25000000 </v>
   <v>      -0.25000000       0.25000000       0.25000000 </v>
   <v>      -0.35000000       0.35000000       0.25000000 </v>
   <v>      -0.45000000       0.45000000       0.25000000 </v>
   <v>      -0.35000000       0.45000000       0.25000000 </v>
   <v>      -0.45000000      -0.45000000       0.25000000 </v>
   <v>      -0.35000000       0.35000000       0.35000000 </v>
   <v>      -0.45000000       0.45000000       0.35000000 </v>
   <v>      -0.45000000      -0.45000000       0.35000000 </v>
   <v>      -0.45000000       0.45000000       0.45000000 </v>
  </varray>
  <varray name="weights" >
   <v>       0.00800000 </v>
   <v>       0.02400000 </v>
   <v>       0.02400000 </v>
   <v>       0.02400000 </v>
   <v>       0.01200000 </v>
   <v>       0.00600000 </v>
   <v>       0.02400000 </v>
   <v>       0.04800000 </v>
   <v>       0.04800000 </v>
   <v>       0.02400000 </v>
   <v>       0.02400000 </v>
   <v>       0.02400000 </v>
   <v>       0.02400000 </v>
   <v>       0.02400000 </v>
   <v>       0.02400000 </v>
   <v>       0.04800000 </v>
   <v>       0.02400000 </v>
   <v>       0.04800000 </v>
   <v>       0.02400000 </v>
   <v>       0.02400000 </v>
   <v>       0.04800000 </v>
   <v>       0.00800000 </v>
   <v>       0.00800000 </v>
   <v>       0.02400000 </v>
   <v>       0.01200000 </v>
   <v>       0.00600000 </v>
   <v>       0.02400000 </v>
   <v>       0.02400000 </v>
   <v>       0.02400000 </v>
   <v>       0.02400000 </v>
   <v>       0.02400000 </v>
   <v>       0.04800000 </v>
   <v>       0.02400000 </v>
   <v>       0.02400000 </v>
   <v>       0.00200000 </v>
   <v>       0.00600000 </v>
   <v>       0.02400000 </v>
   <v>       0.02400000 </v>
   <v>       0.02400000 </v>
   <v>       0.02400000 </v>
   <v>       0.00600000 </v>
   <v>       0.02400000 </v>
   <v>       0.00800000 </v>
   <v>       0.00600000 </v>
  </varray>
 </kpoints>
 <parameters>
  <separator name="general" >
   <i type="string" name="SYSTEM">bcc Fe</i>
   <i type="logical" name="LCOMPAT"> F  </i>
  </separator>
  <separator name="electronic" >
   <i type="string" name="PREC">normal</i>
   <i name="ENMAX">    268.00000000</i>
   <i name="ENAUG">    511.36800000</i>
   <i name="EDIFF">      0.00010000</i>
   <i type="int" name="IALGO">    38</i>
   <i type="int" name="IWAVPR">    10</i>
   <i type="int" name="NBANDS">    12</i>
   <i name="NELECT">      8.00000000</i>
   <i type="int" name="TURBO">     0</i>
   <i type="int" name="IRESTART">     0</i>
   <i type="int" name="NREBOOT">     0</i>
   <i type="int" name="NMIN">     0</i>
   <i name="EREF">      0.00000000</i>
   <separator name="electronic smearing" >
    <i type="int" name="ISMEAR">     1</i>
    <i name="SIGMA">      0.20000000</i>
    <i name="KSPACING">      0.50000000</i>
    <i type="logical" name="KGAMMA"> T  </i>
   </separator>
   <separator name="electronic projectors" >
    <i type="logical" name="LREAL"> F  </i>
    <v name="ROPT">      0.00000000</v>
    <i type="int" name="LMAXPAW">  -100</i>
    <i type="int" name="LMAXMIX">     2</i>
    <i type="logical" name="NLSPLINE"> F  </i>
   </separator>
   <separator name="electronic startup" >
    <i type="int" name="ISTART">     0</i>
    <i type="int" name="ICHARG">     2</i>
    <i type="int" name="INIWAV">     1</i>
   </separator>
   <separator name="electronic spin" >
    <i type="int" name="ISPIN">     2</i>
    <i type="logical" name="LNONCOLLINEAR"> F  </i>
    <v name="MAGMOM">      3.00000000</v>
    <i name="NUPDOWN">     -1.00000000</i>
    <i type="logical" name="LSORBIT"> F  </i>
    <v name="SAXIS">      0.00000000      0.00000000      1.00000000</v>
    <i type="logical" name="LSPIRAL"> F  </i>
    <v name="QSPIRAL">      0.00000000      0.00000000      0.00000000</v>
    <i type="logical" name="LZEROZ"> F  </i>
   </separator>
   <separator name="electronic exchange-correlation" >
    <i type="logical" name="LASPH"> F  </i>
    <i type="logical" name="LMETAGGA"> F  </i>
   </separator>
   <separator name="electronic convergence" >
    <i type="int" name="NELM">    60</i>
    <i type="int" name="NELMDL">    -5</i>
    <i type="int" name="NELMIN">     2</i>
    <i name="ENINI">    268.00000000</i>
    <separator name="electronic convergence detail" >
     <i type="logical" name="LDIAG"> T  </i>
     <i type="logical" name="LSUBROT"> F  </i>
     <i name="WEIMIN">      0.00000000</i>
     <i name="EBREAK">      0.00000208</i>
     <i name="DEPER">      0.30000000</i>
     <i type="int" name="NRMM">     4</i>
     <i name="TIME">      0.40000000</i>
    </separator>
   </separator>
   <separator name="electronic mixer" >
    <i name="AMIX">      0.40000000</i>
    <i name="BMIX">      1.00000000</i>
    <i name="AMIN">      0.10000000</i>
    <i name="AMIX_MAG">      1.60000000</i>
    <i name="BMIX_MAG">      1.00000000</i>
    <separator name="electronic mixer details" >
     <i type="int" name="IMIX">     4</i>
     <i type="logical" name="MIXFIRST"> F  </i>
     <i type="int" name="MAXMIX">   -45</i>
     <i name="WC">    100.00000000</i>
     <i type="int" name="INIMIX">     1</i>
     <i type="int" name="MIXPRE">     1</i>
     <i type="int" name="MREMOVE">     5</i>
    </separator>
   </separator>
   <separator name="electronic dipolcorrection" >
    <i type="logical" name="LDIPOL"> F  </i>
    <i type="logical" name="LMONO"> F  </i>
    <i type="int" name="IDIPOL">     0</i>
    <i name="EPSILON">      1.00000000</i>
    <v name="DIPOL">   -100.00000000   -100.00000000   -100.00000000</v>
    <i name="EFIELD">      0.00000000</i>
   </separator>
  </separator>
  <separator name="grids" >
   <i type="int" name="NGX">    10</i>
   <i type="int" name="NGY">    10</i>
   <i type="int" name="NGZ">    10</i>
   <i type="int" name="NGXF">    20</i>
   <i type="int" name="NGYF">    20</i>
   <i type="int" name="NGZF">    20</i>
   <i type="logical" name="ADDGRID"> F  </i>
  </separator>
  <separator name="ionic" >
   <i type="int" name="NSW">     0</i>
   <i type="int" name="IBRION">    -1</i>
   <i type="int" name="MDALGO">     0</i>
   <i type="int" name="ISIF">     2</i>
   <i name="PSTRESS">      0.00000000</i>
   <i name="EDIFFG">      0.00100000</i>
   <i type="int" name="NFREE">     0</i>
   <i name="POTIM">      0.50000000</i>
   <i name="SMASS">     -3.00000000</i>
   <i name="SCALEE">      1.00000000</i>
  </separator>
  <separator name="ionic md" >
   <i name="TEBEG">      0.00010000</i>
   <i name="TEEND">      0.00010000</i>
   <i type="int" name="NBLOCK">     1</i>
   <i type="int" name="KBLOCK">     1</i>
   <i type="int" name="NPACO">   256</i>
   <i name="APACO">     16.00000000</i>
  </separator>
  <separator name="symmetry" >
   <i type="int" name="ISYM">     2</i>
   <i name="SYMPREC">      0.00001000</i>
  </separator>
  <separator name="dos" >
   <i type="int" name="LORBIT">     0</i>
   <v name="RWIGS">     -1.00000000</v>
   <i type="int" name="NEDOS">   301</i>
   <i name="EMIN">     10.00000000</i>
   <i name="EMAX">    -10.00000000</i>
   <i name="EFERMI">      0.00000000</i>
  </separator>
  <separator name="writing" >
   <i type="int" name="NWRITE">     2</i>
   <i type="logical" name="LWAVE"> T  </i>
   <i type="logical" name="LDOWNSAMPLE"> F  </i>
   <i type="logical" name="LCHARG"> T  </i>
   <i type="logical" name="LPARD"> F  </i>
   <i type="logical" name="LVTOT"> F  </i>
   <i type="logical" name="LVHAR"> F  </i>
   <i type="logical" name="LELF"> F  </i>
   <i type="logical" name="LOPTICS"> F  </i>
   <v name="STM">      0.00000000      0.00000000      0.00000000      0.00000000      0.00000000      0.00000000      0.00000000</v>
  </separator>
  <separator name="performance" >
   <i type="int" name="NPAR">     4</i>
   <i type="int" name="NSIM">     4</i>
   <i type="int" name="NBLK">    -1</i>
   <i type="logical" name="LPLANE"> T  </i>
   <i type="logical" name="LSCALAPACK"> T  </i>
   <i type="logical" name="LSCAAWARE"> F  </i>
   <i type="logical" name="LSCALU"> F  </i>
   <i type="logical" name="LASYNC"> F  </i>
   <i type="logical" name="LORBITALREAL"> F  </i>
  </separator>
  <separator name="miscellaneous" >
   <i type="int" name="IDIOT">     3</i>
   <i type="int" name="ISPECIAL">     0</i>
   <i type="logical" name="LMUSIC"> F  </i>
   <v name="POMASS">     55.84700000</v>
   <v name="DARWINR">      0.00000000</v>
   <v name="DARWINV">      1.00000000</v>
   <i type="logical" name="LCORR"> T  </i>
  </separator>
  <i type="logical" name="GGA_COMPAT"> T  </i>
  <i type="logical" name="LBERRY"> F  </i>
  <i type="int" name="ICORELEVEL">     0</i>
  <i type="logical" name="LDAU"> F  </i>
  <i type="int" name="I_CONSTRAINED_M">     0</i>
  <separator name="electronic exchange-correlation" >
   <i type="string" name="GGA">--</i>
   <i type="int" name="VOSKOWN">     0</i>
   <i type="logical" name="LHFCALC"> F  </i>
   <i type="string" name="PRECFOCK"></i>
   <i type="logical" name="LSYMGRAD"> F  </i>
   <i type="logical" name="LHFONE"> F  </i>
   <i type="logical" name="LRHFCALC"> F  </i>
   <i type="logical" name="LTHOMAS"> F  </i>
   <i type="logical" name="LMODELHF"> F  </i>
   <i name="ENCUT4O">     -1.00000000</i>
   <i type="int" name="EXXOEP">     0</i>
   <i type="int" name="FOURORBIT">     0</i>
   <i name="AEXX">      0.00000000</i>
   <i name="HFALPHA">      0.00000000</i>
   <i name="MCALPHA">      0.00000000</i>
   <i name="ALDAX">      1.00000000</i>
   <i name="AGGAX">      1.00000000</i>
   <i name="ALDAC">      1.00000000</i>
   <i name="AGGAC">      1.00000000</i>
   <i type="int" name="NKREDX">     1</i>
   <i type="int" name="NKREDY">     1</i>
   <i type="int" name="NKREDZ">     1</i>
   <i type="logical" name="SHIFTRED"> F  </i>
   <i type="logical" name="ODDONLY"> F  </i>
   <i type="logical" name="EVENONLY"> F  </i>
   <i type="int" name="LMAXFOCK">     0</i>
   <i type="int" name="NMAXFOCKAE">     0</i>
   <i type="logical" name="LFOCKAEDFT"> F  </i>
   <i name="HFSCREEN">      0.00000000</i>
   <i name="HFSCREENC">      0.00000000</i>
   <i type="int" name="NBANDSGWLOW">     0</i>
  </separator>
  <separator name="vdW DFT" >
   <i type="logical" name="LUSE_VDW"> F  </i>
   <i name="Zab_VDW">     -0.84910000</i>
   <i name="PARAM1">      0.12340000</i>
   <i name="PARAM2">      1.00000000</i>
   <i name="PARAM3">      0.00000000</i>
  </separator>
  <separator name="model GW" >
   <i type="int" name="MODEL_GW">     0</i>
   <i name="MODEL_EPS0">      6.87174602</i>
   <i name="MODEL_ALPHA">      1.00000000</i>
  </separator>
  <separator name="linear response parameters" >
   <i type="logical" name="LEPSILON"> F  </i>
   <i type="logical" name="LRPA"> F  </i>
   <i type="logical" name="LNABLA"> F  </i>
   <i type="logical" name="LVEL"> F  </i>
   <i type="int" name="KINTER">     0</i>
   <i name="CSHIFT">      0.10000000</i>
   <i name="OMEGAMAX">     -1.00000000</i>
   <i name="DEG_THRESHOLD">      0.00200000</i>
   <i name="RTIME">     -0.10000000</i>
   <i name="WPLASMAI">      0.00000000</i>
   <v name="DFIELD">      0.00000000      0.00000000      0.00000000</v>
   <v name="WPLASMA">      0.00000000      0.00000000      0.00000000      0.00000000      0.00000000      0.00000000      0.00000000      0.00000000      0.00000000</v>
  </separator>
  <separator name="orbital magnetization" >
   <i type="logical" name="NUCIND"> F  </i>
   <v name="MAGPOS">      0.00000000      0.00000000      0.00000000</v>
   <i type="logical" name="LNICSALL"> T  </i>
   <i type="logical" name="ORBITALMAG"> F  </i>
   <i type="logical" name="LMAGBLOCH"> F  </i>
   <i type="logical" name="LCHIMAG"> F  </i>
   <i type="logical" name="LGAUGE"> T  </i>
   <i type="int" name="MAGATOM">     0</i>
   <v name="MAGDIPOL">      0.00000000      0.00000000      0.00000000</v>
   <v name="AVECCONST">      0.00000000      0.00000000      0.00000000</v>
  </separator>
  <separator name="response functions" >
   <i type="logical" name="LADDER"> F  </i>
   <i type="logical" name="LRPAFORCE"> F  </i>
   <i type="logical" name="LFXC"> F  </i>
   <i type="logical" name="LHARTREE"> T  </i>
   <i type="int" name="IBSE">     0</i>
   <v type="int" name="KPOINT">    -1     0     0     0</v>
   <i type="logical" name="LTCTE"> F  </i>
   <i type="logical" name="LTETE"> F  </i>
   <i type="logical" name="LTRIPLET"> F  </i>
   <i type="logical" name="LFXCEPS"> F  </i>
   <i type="logical" name="LFXHEG"> F  </i>
   <i type="int" name="NATURALO">     2</i>
   <i type="logical" name="L2ORDER"> F  </i>
   <i type="logical" name="LMP2LT"> F  </i>
   <i type="logical" name="LUSEW"> F  </i>
   <i name="ENCUTGW">     -2.00000000</i>
   <i name="ENCUTGWSOFT">     -2.00000000</i>
   <i name="ENCUTLF">     -1.00000000</i>
   <i type="int" name="LMAXMP2">    -1</i>
   <i name="SCISSOR">      0.00000000</i>
   <i type="int" name="NOMEGA">     0</i>
   <i type="int" name="NOMEGAR">     0</i>
   <i type="int" name="NBANDSGW">    -1</i>
   <i type="int" name="NBANDSO">    -1</i>
   <i type="int" name="NBANDSV">    -1</i>
   <i type="int" name="NELM">     1</i>
   <i type="int" name="NELMHF">     1</i>
   <i type="int" name="DIM">     3</i>
   <i type="int" name="ANTIRES">     0</i>
   <i name="OMEGAMAX">    -30.00000000</i>
   <i name="OMEGAMIN">    -30.00000000</i>
   <i name="OMEGATL">   -200.00000000</i>
   <i type="int" name="OMEGAGRID">   140</i>
   <i name="CSHIFT">     -0.10000000</i>
   <i type="logical" name="SELFENERGY"> F  </i>
   <i type="logical" name="LSPECTRAL"> F  </i>
   <i type="logical" name="LSPECTRALGW"> F  </i>
   <i type="logical" name="LSINGLES"> F  </i>
   <i type="logical" name="LFERMIGW"> F  </i>
   <i type="logical" name="ODDONLYGW"> F  </i>
   <i type="logical" name="EVENONLYGW"> F  </i>
   <i type="int" name="NKREDLFX">     1</i>
   <i type="int" name="NKREDLFY">     1</i>
   <i type="int" name="NKREDLFZ">     1</i>
   <i type="int" name="MAXMEM">  2800</i>
   <i type="int" name="TELESCOPE">     0</i>
   <i type="int" name="TAUPAR">     1</i>
   <i type="int" name="OMEGAPAR">    -1</i>
   <i name="LAMBDA">      1.00000000</i>
  </separator>
  <separator name="External order field" >
   <i name="OFIELD_KAPPA">      0.00000000</i>
   <v name="OFIELD_K">      0.00000000      0.00000000      0.00000000</v>
   <i name="OFIELD_Q6_NEAR">      0.00000000</i>
   <i name="OFIELD_Q6_FAR">      0.00000000</i>
   <i name="OFIELD_A">      0.00000000</i>
  </separator>
 </parameters>
 <atominfo>
  <atoms>       1 </atoms>
  <types>       1 </types>
  <array name="atoms" >
   <dimension dim="1">ion</dimension>
   <field type="string">element</field>
   <field type="int">atomtype</field>
   <set>
    <rc><c>Fe</c><c>   1</c></rc>
   </set>
  </array>
  <array name="atomtypes" >
   <dimension dim="1">type</dimension>
   <field type="int">atomspertype</field>
   <field type="string">element</field>
   <field>mass</field>
   <field>valence</field>
   <field type="string">pseudopotential</field>
   <set>
    <rc><c>   1</c><c>Fe</c><c>     55.84700000</c><c>      8.00000000</c><c>  PAW_PBE Fe 06Sep2000                  </c></rc>
   </set>
  </array>
 </atominfo>
 <structure name="initialpos" >
  <crystal>
   <varray name="basis" >
    <v>      -1.41999000       1.41999000       1.41999000 </v>
    <v>       1.41999000      -1.41999000       1.41999000 </v>
    <v>       1.41999000       1.41999000      -1.41999000 </v>
   </varray>
   <i name="volume">     11.45291003 </i>
   <varray name="rec_basis" >
    <v>       0.00000000       0.35211516       0.35211516 </v>
    <v>       0.35211516       0.00000000       0.35211516 </v>
    <v>       0.35211516       0.35211516       0.00000000 </v>
   </varray>
  </crystal>
  <varray name="positions" >
   <v>       0.00000000       0.00000000       0.00000000 </v>
  </varray>
 </structure>
 <calculation>
  <scstep>
   <time name="dav">    0.11    0.12</time>
   <time name="total">    0.12    0.14</time>
   <energy>
    <i name="alphaZ">     60.34603939 </i>
    <i name="ewald">   -590.47387226 </i>
    <i name="hartreedc">   -112.15699037 </i>
    <i name="XCdc">      5.05168935 </i>
    <i name="pawpsdc">    553.75926685 </i>
    <i name="pawaedc">   -561.48528711 </i>
    <i name="eentropy">     -0.00045678 </i>
    <i name="bandstr">     60.83920415 </i>
    <i name="atom">    594.28084496 </i>
    <i name="e_fr_energy">     10.16043818 </i>
    <i name="e_wo_entrp">     10.16089496 </i>
    <i name="e_0_energy">     10.16059044 </i>
   </energy>
  </scstep>
  <scstep>
   <time name="dav">    0.10    0.10</time>
   <time name="total">    0.10    0.10</time>
   <energy>
    <i name="e_fr_energy">     -8.83229279 </i>
    <i name="e_wo_entrp">     -8.83242675 </i>
    <i name="e_0_energy">     -8.83233744 </i>
   </energy>
  </scstep>
  <scstep>
   <time name="dav">    0.11    0.11</time>
   <time name="total">    0.11    0.11</time>
   <energy>
    <i name="e_fr_energy">     -9.13079225 </i>
    <i name="e_wo_entrp">     -9.13168774 </i>
    <i name="e_0_energy">     -9.13109075 </i>
   </energy>
  </scstep>
  <scstep>
   <time name="dav">    0.11    0.11</time>
   <time name="total">    0.11    0.11</time>
   <energy>
    <i name="e_fr_energy">     -9.13158875 </i>
    <i name="e_wo_entrp">     -9.13248886 </i>
    <i name="e_0_energy">     -9.13188878 </i>
   </energy>
  </scstep>
  <scstep>
   <time name="dav">    0.09    0.10</time>
   <time name="total">    0.10    0.10</time>
   <energy>
    <i name="e_fr_energy">     -9.13159255 </i>
    <i name="e_wo_entrp">     -9.13249271 </i>
    <i name="e_0_energy">     -9.13189260 </i>
   </energy>
  </scstep>
  <scstep>
   <time name="dav">    0.11    0.11</time>
   <time name="total">    0.11    0.12</time>
   <energy>
    <i name="e_fr_energy">     -8.30875667 </i>
    <i name="e_wo_entrp">     -8.30764158 </i>
    <i name="e_0_energy">     -8.30838498 </i>
   </energy>
  </scstep>
  <scstep>
   <time name="dav">    0.11    0.11</time>
   <time name="total">    0.12    0.12</time>
   <energy>
    <i name="e_fr_energy">     -8.24528129 </i>
    <i name="e_wo_entrp">     -8.24312144 </i>
    <i name="e_0_energy">     -8.24456134 </i>
   </energy>
  </scstep>
  <scstep>
   <time name="dav">    0.11    0.11</time>
   <time name="total">    0.12    0.12</time>
   <energy>
    <i name="e_fr_energy">     -8.24155929 </i>
    <i name="e_wo_entrp">     -8.24054134 </i>
    <i name="e_0_energy">     -8.24121997 </i>
   </energy>
  </scstep>
  <scstep>
   <time name="dav">    0.12    0.12</time>
   <time name="total">    0.13    0.13</time>
   <energy>
    <i name="e_fr_energy">     -8.23583877 </i>
    <i name="e_wo_entrp">     -8.23796127 </i>
    <i name="e_0_energy">     -8.23654627 </i>
   </energy>
  </scstep>
  <scstep>
   <time name="dav">    0.10    0.10</time>
   <time name="total">    0.10    0.11</time>
   <energy>
    <i name="e_fr_energy">     -8.23631256 </i>
    <i name="e_wo_entrp">     -8.23811716 </i>
    <i name="e_0_energy">     -8.23691409 </i>
   </energy>
  </scstep>
  <scstep>
   <time name="dav">    0.10    0.10</time>
   <time name="total">    0.11    0.11</time>
   <energy>
    <i name="e_fr_energy">     -8.23659311 </i>
    <i name="e_wo_entrp">     -8.23772654 </i>
    <i name="e_0_energy">     -8.23697092 </i>
   </energy>
  </scstep>
  <scstep>
   <time name="dav">    0.07    0.07</time>
   <time name="total">    0.08    0.08</time>
   <energy>
    <i name="alphaZ">     60.34603939 </i>
    <i name="ewald">   -590.47387226 </i>
    <i name="hartreedc">    -95.90357141 </i>
    <i name="XCdc">      4.41600808 </i>
    <i name="pawpsdc">    718.87990423 </i>
    <i name="pawaedc">   -727.94438952 </i>
    <i name="eentropy">      0.00103045 </i>
    <i name="bandstr">     28.16141601 </i>
    <i name="atom">    594.28084496 </i>
    <i name="e_fr_energy">     -8.23659006 </i>
    <i name="e_wo_entrp">     -8.23762052 </i>
    <i name="e_0_energy">     -8.23693355 </i>
   </energy>
  </scstep>
  <structure>
   <crystal>
    <varray name="basis" >
     <v>      -1.41999000       1.41999000       1.41999000 </v>
     <v>       1.41999000      -1.41999000       1.41999000 </v>
     <v>       1.41999000       1.41999000      -1.41999000 </v>
    </varray>
    <i name="volume">     11.45291003 </i>
    <varray name="rec_basis" >
     <v>       0.00000000       0.35211516       0.35211516 </v>
     <v>       0.35211516       0.00000000       0.35211516 </v>
     <v>       0.35211516       0.35211516       0.00000000 </v>
    </varray>
   </crystal>
   <varray name="positions" >
    <v>       0.00000000       0.00000000       0.00000000 </v>
   </varray>
  </structure>
  <varray name="forces" >
   <v>      -0.00000000       0.00000000      -0.00000000 </v>
  </varray>
  <varray name="stress" >
   <v>     -37.89139743       0.00000000       0.00000000 </v>
   <v>       0.00000000     -37.89139743       0.00000000 </v>
   <v>       0.00000000       0.00000000     -37.89139743 </v>
  </varray>
  <energy>
   <i name="e_fr_energy">     -8.23659006 </i>
   <i name="e_wo_entrp">     -8.23693355 </i>
   <i name="e_0_energy">      0.00103045 </i>
  </energy>
  <time name="totalsc">    1.40    1.44</time>
  <eigenvalues>
   <array>
    <dimension dim="1">band</dimension>
    <dimension dim="2">kpoint</dimension>
    <dimension dim="3">spin</dimension>
    <field>eigene</field>
    <field>occ</field>
    <set>
     <set comment="spin 1">
      <set comment="kpoint 1">
       <r>   -2.0504    1.0000 </r>
       <r>    3.2869    1.0000 </r>
       <r>    3.2869    1.0000 </r>
       <r>    3.7938    1.0000 </r>
       <r>    4.6309    1.0000 </r>
       <r>    4.6309    1.0000 </r>
       <r>   28.1284    0.0000 </r>
       <r>   28.1284    0.0000 </r>
       <r>   31.2323    0.0000 </r>
       <r>   32.4467    0.0000 </r>
       <r>   36.1069    0.0000 </r>
       <r>   36.1069    0.0000 </r>
      </set>
      <set comment="kpoint 2">
       <r>   -0.9387    1.0000 </r>
       <r>    2.9886    1.0000 </r>
       <r>    3.1378    1.0000 </r>
       <r>    4.4574    1.0000 </r>
       <r>    4.5256    1.0000 </r>
       <r>    4.7088    1.0000 </r>
       <r>   23.8957    0.0000 </r>
       <r>   26.2071    0.0000 </r>
       <r>   29.0670    0.0000 </r>
       <r>   31.5080    0.0000 </r>
       <r>   35.8335    0.0000 </r>
       <r>   36.1772    0.0000 </r>
      </set>
      <set comment="kpoint 3">
       <r>    0.4154    1.0000 </r>
       <r>    2.6607    1.0000 </r>
       <r>    3.2192    1.0000 </r>
       <r>    4.5848    1.0000 </r>
       <r>    4.7862    1.0000 </r>
       <r>    5.3864    1.0112 </r>
       <r>   19.2799    0.0000 </r>
       <r>   24.4773    0.0000 </r>
       <r>   26.6561    0.0000 </r>
       <r>   31.0798    0.0000 </r>
       <r>   34.8963    0.0000 </r>
       <r>   38.1551    0.0000 </r>
      </set>
      <set comment="kpoint 4">
       <r>    0.9654    1.0000 </r>
       <r>    2.4169    1.0000 </r>
       <r>    4.2729    1.0000 </r>
       <r>    4.7257    1.0000 </r>
       <r>    4.8521    1.0000 </r>
       <r>    6.5176   -0.0000 </r>
       <r>   15.1611    0.0000 </r>
       <r>   23.2889    0.0000 </r>
       <r>   25.0313    0.0000 </r>
       <r>   30.7056    0.0000 </r>
       <r>   34.5682    0.0000 </r>
       <r>   40.4095    0.0000 </r>
      </set>
      <set comment="kpoint 5">
       <r>    0.9876    1.0000 </r>
       <r>    2.3265    1.0000 </r>
       <r>    4.7433    1.0000 </r>
       <r>    4.8782    1.0000 </r>
       <r>    5.0275    1.0000 </r>
       <r>    7.4697   -0.0000 </r>
       <r>   13.0437    0.0000 </r>
       <r>   22.8661    0.0000 </r>
       <r>   24.4345    0.0000 </r>
       <r>   30.5625    0.0000 </r>
       <r>   34.5373    0.0000 </r>
       <r>   40.3078    0.0000 </r>
      </set>
      <set comment="kpoint 6">
       <r>   -2.4516    1.0000 </r>
       <r>    3.4146    1.0000 </r>
       <r>    3.4148    1.0000 </r>
       <r>    3.4655    1.0000 </r>
       <r>    4.5957    1.0000 </r>
       <r>    4.7224    1.0000 </r>
       <r>   29.4626    0.0000 </r>
       <r>   30.4758    0.0000 </r>
       <r>   30.4758    0.0000 </r>
       <r>   34.0773    0.0000 </r>
       <r>   36.0006    0.0000 </r>
       <r>   36.0007    0.0000 </r>
      </set>
      <set comment="kpoint 7">
       <r>    0.3163    1.0000 </r>
       <r>    2.7649    1.0000 </r>
       <r>    2.7946    1.0000 </r>
       <r>    4.5473    1.0000 </r>
       <r>    4.7950    1.0000 </r>
       <r>    5.4443    1.0230 </r>
       <r>   21.5950    0.0000 </r>
       <r>   22.4849    0.0000 </r>
       <r>   25.8897    0.0000 </r>
       <r>   32.8228    0.0000 </r>
       <r>   36.7354    0.0000 </r>
       <r>   38.2614    0.0000 </r>
      </set>
      <set comment="kpoint 8">
       <r>    1.3267    1.0000 </r>
       <r>    2.4830    1.0000 </r>
       <r>    3.0293    1.0000 </r>
       <r>    4.6433    1.0000 </r>
       <r>    4.8972    1.0000 </r>
       <r>    6.8267   -0.0000 </r>
       <r>   17.5044    0.0000 </r>
       <r>   20.6414    0.0000 </r>
       <r>   24.1164    0.0000 </r>
       <r>   33.0436    0.0000 </r>
       <r>   37.5221    0.0000 </r>
       <r>   38.9401    0.0000 </r>
      </set>
      <set comment="kpoint 9">
       <r>    1.4243    1.0000 </r>
       <r>    2.3486    1.0000 </r>
       <r>    3.7657    1.0000 </r>
       <r>    4.7576    1.0000 </r>
       <r>    4.9906    1.0000 </r>
       <r>    8.6180   -0.0000 </r>
       <r>   13.8980    0.0000 </r>
       <r>   19.8102    0.0000 </r>
       <r>   23.2177    0.0000 </r>
       <r>   32.9254    0.0000 </r>
       <r>   38.2173    0.0000 </r>
       <r>   39.1752    0.0000 </r>
      </set>
      <set comment="kpoint 10">
       <r>   -1.6636    1.0000 </r>
       <r>    3.2268    1.0000 </r>
       <r>    3.3755    1.0000 </r>
       <r>    3.8720    1.0000 </r>
       <r>    4.3934    1.0000 </r>
       <r>    4.7853    1.0000 </r>
       <r>   26.1736    0.0000 </r>
       <r>   28.8450    0.0000 </r>
       <r>   29.5876    0.0000 </r>
       <r>   33.2806    0.0000 </r>
       <r>   33.5192    0.0000 </r>
       <r>   34.4959    0.0000 </r>
      </set>
      <set comment="kpoint 11">
       <r>    1.8613    1.0000 </r>
       <r>    2.4136    1.0000 </r>
       <r>    3.0064    1.0000 </r>
       <r>    4.7456    1.0000 </r>
       <r>    4.9808    1.0000 </r>
       <r>    8.9853   -0.0000 </r>
       <r>   15.8771    0.0000 </r>
       <r>   16.8899    0.0000 </r>
       <r>   23.0192    0.0000 </r>
       <r>   34.4120    0.0000 </r>
       <r>   37.2824    0.0000 </r>
       <r>   43.2277    0.0000 </r>
      </set>
      <set comment="kpoint 12">
       <r>    1.9077    1.0000 </r>
       <r>    2.4549    1.0000 </r>
       <r>    3.0747    1.0000 </r>
       <r>    4.8369    1.0000 </r>
       <r>    4.9802    1.0000 </r>
       <r>   11.1044   -0.0000 </r>
       <r>   13.3360    0.0000 </r>
       <r>   16.1649    0.0000 </r>
       <r>   22.6759    0.0000 </r>
       <r>   34.9481    0.0000 </r>
       <r>   37.2599    0.0000 </r>
       <r>   42.8639    0.0000 </r>
      </set>
      <set comment="kpoint 13">
       <r>   -0.3258    1.0000 </r>
       <r>    2.9135    1.0000 </r>
       <r>    3.2784    1.0000 </r>
       <r>    4.3892    1.0000 </r>
       <r>    4.6039    1.0000 </r>
       <r>    4.8591    1.0000 </r>
       <r>   21.5455    0.0000 </r>
       <r>   26.6911    0.0000 </r>
       <r>   28.1156    0.0000 </r>
       <r>   31.4379    0.0000 </r>
       <r>   33.1348    0.0000 </r>
       <r>   35.2436    0.0000 </r>
      </set>
      <set comment="kpoint 14">
       <r>   -0.6008    1.0000 </r>
       <r>    3.1592    1.0000 </r>
       <r>    3.1593    1.0000 </r>
       <r>    4.2037    1.0000 </r>
       <r>    4.4255    1.0000 </r>
       <r>    4.9308    1.0000 </r>
       <r>   23.7644    0.0000 </r>
       <r>   24.9981    0.0000 </r>
       <r>   29.6942    0.0000 </r>
       <r>   30.5663    0.0000 </r>
       <r>   33.2600    0.0000 </r>
       <r>   36.5127    0.0000 </r>
      </set>
      <set comment="kpoint 15">
       <r>    0.7221    1.0000 </r>
       <r>    2.6135    1.0000 </r>
       <r>    3.7481    1.0000 </r>
       <r>    4.6280    1.0000 </r>
       <r>    5.1008    1.0000 </r>
       <r>    5.4206    1.0177 </r>
       <r>   17.0614    0.0000 </r>
       <r>   24.9906    0.0000 </r>
       <r>   26.3810    0.0000 </r>
       <r>   30.4376    0.0000 </r>
       <r>   33.0580    0.0000 </r>
       <r>   37.0890    0.0000 </r>
      </set>
      <set comment="kpoint 16">
       <r>    0.6793    1.0000 </r>
       <r>    2.8044    1.0000 </r>
       <r>    3.1223    1.0000 </r>
       <r>    4.3281    1.0000 </r>
       <r>    4.9883    1.0000 </r>
       <r>    5.5145    1.0354 </r>
       <r>   19.5545    0.0000 </r>
       <r>   22.7166    0.0000 </r>
       <r>   27.8785    0.0000 </r>
       <r>   30.3192    0.0000 </r>
       <r>   33.7796    0.0000 </r>
       <r>   37.1114    0.0000 </r>
      </set>
      <set comment="kpoint 17">
       <r>    0.9082    1.0000 </r>
       <r>    2.4321    1.0000 </r>
       <r>    4.3913    1.0000 </r>
       <r>    4.6925    1.0000 </r>
       <r>    5.9740   -0.0293 </r>
       <r>    6.3433   -0.0002 </r>
       <r>   13.6294    0.0000 </r>
       <r>   24.0659    0.0000 </r>
       <r>   25.2296    0.0000 </r>
       <r>   30.0455    0.0000 </r>
       <r>   33.1779    0.0000 </r>
       <r>   38.3402    0.0000 </r>
      </set>
      <set comment="kpoint 18">
       <r>    1.2005    1.0000 </r>
       <r>    2.6088    1.0000 </r>
       <r>    3.4839    1.0000 </r>
       <r>    4.5617    1.0000 </r>
       <r>    5.3556    1.0069 </r>
       <r>    6.9588   -0.0000 </r>
       <r>   15.3756    0.0000 </r>
       <r>   21.4647    0.0000 </r>
       <r>   26.2729    0.0000 </r>
       <r>   30.4968    0.0000 </r>
       <r>   34.8847    0.0000 </r>
       <r>   36.8958    0.0000 </r>
      </set>
      <set comment="kpoint 19">
       <r>    1.5604    1.0000 </r>
       <r>    2.4671    1.0000 </r>
       <r>    3.1177    1.0000 </r>
       <r>    4.4524    1.0000 </r>
       <r>    5.1371    1.0000 </r>
       <r>    7.2004   -0.0000 </r>
       <r>   17.7071    0.0000 </r>
       <r>   18.5062    0.0000 </r>
       <r>   27.4598    0.0000 </r>
       <r>   30.0963    0.0000 </r>
       <r>   33.6926    0.0000 </r>
       <r>   41.3686    0.0000 </r>
      </set>
      <set comment="kpoint 20">
       <r>    1.2076    1.0000 </r>
       <r>    2.5433    1.0000 </r>
       <r>    3.7275    1.0000 </r>
       <r>    4.5928    1.0000 </r>
       <r>    5.6478    0.9126 </r>
       <r>    8.2724   -0.0000 </r>
       <r>   13.0986    0.0000 </r>
       <r>   21.0118    0.0000 </r>
       <r>   25.7058    0.0000 </r>
       <r>   30.5318    0.0000 </r>
       <r>   36.0467    0.0000 </r>
       <r>   36.2404    0.0000 </r>
      </set>
      <set comment="kpoint 21">
       <r>    1.7755    1.0000 </r>
       <r>    2.5042    1.0000 </r>
       <r>    3.0383    1.0000 </r>
       <r>    4.6728    1.0000 </r>
       <r>    5.2809    1.0017 </r>
       <r>    9.5447   -0.0000 </r>
       <r>   14.1815    0.0000 </r>
       <r>   17.3478    0.0000 </r>
       <r>   26.7748    0.0000 </r>
       <r>   30.7626    0.0000 </r>
       <r>   33.8594    0.0000 </r>
       <r>   40.3959    0.0000 </r>
      </set>
      <set comment="kpoint 22">
       <r>    2.2250    1.0000 </r>
       <r>    2.5252    1.0000 </r>
       <r>    2.5252    1.0000 </r>
       <r>    5.0066    1.0000 </r>
       <r>    5.0068    1.0000 </r>
       <r>   12.5040    0.0000 </r>
       <r>   12.5041    0.0000 </r>
       <r>   15.1013    0.0000 </r>
       <r>   26.8917    0.0000 </r>
       <r>   32.1669    0.0000 </r>
       <r>   32.1669    0.0000 </r>
       <r>   39.9462    0.0000 </r>
      </set>
      <set comment="kpoint 23">
       <r>    1.5476    1.0000 </r>
       <r>    2.4783    1.0000 </r>
       <r>    2.4783    1.0000 </r>
       <r>    4.7627    1.0000 </r>
       <r>    4.7627    1.0000 </r>
       <r>    6.8439   -0.0000 </r>
       <r>   19.9260    0.0000 </r>
       <r>   19.9260    0.0000 </r>
       <r>   21.5955    0.0000 </r>
       <r>   35.6866    0.0000 </r>
       <r>   39.5958    0.0000 </r>
       <r>   39.5958    0.0000 </r>
      </set>
      <set comment="kpoint 24">
       <r>    1.9604    1.0000 </r>
       <r>    2.3179    1.0000 </r>
       <r>    2.9298    1.0000 </r>
       <r>    4.8182    1.0000 </r>
       <r>    4.8700    1.0000 </r>
       <r>    8.7863   -0.0000 </r>
       <r>   16.0445    0.0000 </r>
       <r>   18.8726    0.0000 </r>
       <r>   19.9002    0.0000 </r>
       <r>   36.7346    0.0000 </r>
       <r>   40.5405    0.0000 </r>
       <r>   41.8495    0.0000 </r>
      </set>
      <set comment="kpoint 25">
       <r>    1.8729    1.0000 </r>
       <r>    2.2689    1.0000 </r>
       <r>    3.3712    1.0000 </r>
       <r>    4.8513    1.0000 </r>
       <r>    4.8981    1.0000 </r>
       <r>   10.5896   -0.0000 </r>
       <r>   13.4247    0.0000 </r>
       <r>   18.5141    0.0000 </r>
       <r>   19.4268    0.0000 </r>
       <r>   36.7466    0.0000 </r>
       <r>   41.1497    0.0000 </r>
       <r>   41.9529    0.0000 </r>
      </set>
      <set comment="kpoint 26">
       <r>   -0.9283    1.0000 </r>
       <r>    3.4719    1.0000 </r>
       <r>    3.4720    1.0000 </r>
       <r>    3.8887    1.0000 </r>
       <r>    3.9089    1.0000 </r>
       <r>    4.9960    1.0000 </r>
       <r>   25.7369    0.0000 </r>
       <r>   27.3796    0.0000 </r>
       <r>   27.3797    0.0000 </r>
       <r>   29.0949    0.0000 </r>
       <r>   35.8654    0.0000 </r>
       <r>   35.8654    0.0000 </r>
      </set>
      <set comment="kpoint 27">
       <r>    2.1564    1.0000 </r>
       <r>    2.4640    1.0000 </r>
       <r>    2.8311    1.0000 </r>
       <r>    4.8788    1.0000 </r>
       <r>    4.9079    1.0000 </r>
       <r>   11.4010    0.0000 </r>
       <r>   14.7132    0.0000 </r>
       <r>   15.8831    0.0000 </r>
       <r>   18.7614    0.0000 </r>
       <r>   39.3353    0.0000 </r>
       <r>   41.1092    0.0000 </r>
       <r>   44.6191    0.0000 </r>
      </set>
      <set comment="kpoint 28">
       <r>    0.2823    1.0000 </r>
       <r>    3.1772    1.0000 </r>
       <r>    3.3222    1.0000 </r>
       <r>    3.9294    1.0000 </r>
       <r>    4.5171    1.0000 </r>
       <r>    5.2789    1.0016 </r>
       <r>   22.1133    0.0000 </r>
       <r>   25.2181    0.0000 </r>
       <r>   25.4425    0.0000 </r>
       <r>   29.0618    0.0000 </r>
       <r>   35.2568    0.0000 </r>
       <r>   36.5850    0.0000 </r>
      </set>
      <set comment="kpoint 29">
       <r>    1.1988    1.0000 </r>
       <r>    2.9242    1.0000 </r>
       <r>    3.0779    1.0000 </r>
       <r>    4.3120    1.0000 </r>
       <r>    5.3459    1.0058 </r>
       <r>    6.1716   -0.0071 </r>
       <r>   17.5829    0.0000 </r>
       <r>   23.4333    0.0000 </r>
       <r>   24.2099    0.0000 </r>
       <r>   30.6354    0.0000 </r>
       <r>   34.1893    0.0000 </r>
       <r>   36.4572    0.0000 </r>
      </set>
      <set comment="kpoint 30">
       <r>    1.2564    1.0000 </r>
       <r>    2.6550    1.0000 </r>
       <r>    3.4523    1.0000 </r>
       <r>    4.0692    1.0000 </r>
       <r>    5.0286    1.0000 </r>
       <r>    6.1587   -0.0088 </r>
       <r>   20.1088    0.0000 </r>
       <r>   20.7731    0.0000 </r>
       <r>   26.3151    0.0000 </r>
       <r>   27.7824    0.0000 </r>
       <r>   34.7876    0.0000 </r>
       <r>   40.0108    0.0000 </r>
      </set>
      <set comment="kpoint 31">
       <r>    1.3165    1.0000 </r>
       <r>    2.9254    1.0000 </r>
       <r>    3.1231    1.0000 </r>
       <r>    4.3864    1.0000 </r>
       <r>    5.9235    0.0114 </r>
       <r>    8.0926   -0.0000 </r>
       <r>   13.9001    0.0000 </r>
       <r>   22.3716    0.0000 </r>
       <r>   23.5367    0.0000 </r>
       <r>   32.6842    0.0000 </r>
       <r>   33.6434    0.0000 </r>
       <r>   35.4160    0.0000 </r>
      </set>
      <set comment="kpoint 32">
       <r>    1.6822    1.0000 </r>
       <r>    2.4264    1.0000 </r>
       <r>    3.2596    1.0000 </r>
       <r>    4.4085    1.0000 </r>
       <r>    5.5051    1.0347 </r>
       <r>    8.1704   -0.0000 </r>
       <r>   16.0513    0.0000 </r>
       <r>   19.2174    0.0000 </r>
       <r>   25.7558    0.0000 </r>
       <r>   29.2422    0.0000 </r>
       <r>   33.7761    0.0000 </r>
       <r>   38.4274    0.0000 </r>
      </set>
      <set comment="kpoint 33">
       <r>    1.6336    1.0000 </r>
       <r>    2.5921    1.0000 </r>
       <r>    3.0771    1.0000 </r>
       <r>    4.5011    1.0000 </r>
       <r>    5.7613    0.5141 </r>
       <r>   10.1258   -0.0000 </r>
       <r>   13.3521    0.0000 </r>
       <r>   18.7352    0.0000 </r>
       <r>   25.3917    0.0000 </r>
       <r>   31.0137    0.0000 </r>
       <r>   32.5112    0.0000 </r>
       <r>   37.1112    0.0000 </r>
      </set>
      <set comment="kpoint 34">
       <r>    2.0670    1.0000 </r>
       <r>    2.1124    1.0000 </r>
       <r>    2.9977    1.0000 </r>
       <r>    4.8994    1.0000 </r>
       <r>    5.4137    1.0162 </r>
       <r>   11.0094   -0.0000 </r>
       <r>   14.5335    0.0000 </r>
       <r>   15.8177    0.0000 </r>
       <r>   27.7835    0.0000 </r>
       <r>   28.7352    0.0000 </r>
       <r>   31.7100    0.0000 </r>
       <r>   37.0694    0.0000 </r>
      </set>
      <set comment="kpoint 35">
       <r>    2.5064    1.0000 </r>
       <r>    2.5064    1.0000 </r>
       <r>    2.5065    1.0000 </r>
       <r>    4.9182    1.0000 </r>
       <r>    4.9182    1.0000 </r>
       <r>   14.3206    0.0000 </r>
       <r>   14.3206    0.0000 </r>
       <r>   14.3208    0.0000 </r>
       <r>   16.4684    0.0000 </r>
       <r>   44.5827    0.0000 </r>
       <r>   44.5828    0.0000 </r>
       <r>   44.5828    0.0000 </r>
      </set>
      <set comment="kpoint 36">
       <r>    1.1229    1.0000 </r>
       <r>    2.7979    1.0000 </r>
       <r>    3.8506    1.0000 </r>
       <r>    3.8507    1.0000 </r>
       <r>    4.5773    1.0000 </r>
       <r>    5.9631   -0.0243 </r>
       <r>   22.7266    0.0000 </r>
       <r>   22.7267    0.0000 </r>
       <r>   23.2598    0.0000 </r>
       <r>   25.5697    0.0000 </r>
       <r>   39.5217    0.0000 </r>
       <r>   39.5218    0.0000 </r>
      </set>
      <set comment="kpoint 37">
       <r>    1.6145    1.0000 </r>
       <r>    2.2421    1.0000 </r>
       <r>    3.8901    1.0000 </r>
       <r>    4.2282    1.0000 </r>
       <r>    5.2419    1.0007 </r>
       <r>    7.4841   -0.0000 </r>
       <r>   18.5358    0.0000 </r>
       <r>   20.7670    0.0000 </r>
       <r>   23.2273    0.0000 </r>
       <r>   26.1058    0.0000 </r>
       <r>   37.2081    0.0000 </r>
       <r>   38.4224    0.0000 </r>
      </set>
      <set comment="kpoint 38">
       <r>    1.5981    1.0000 </r>
       <r>    2.0943    1.0000 </r>
       <r>    3.8097    1.0000 </r>
       <r>    4.3970    1.0000 </r>
       <r>    5.8368    0.2156 </r>
       <r>   10.0117   -0.0000 </r>
       <r>   14.5632    0.0000 </r>
       <r>   19.6234    0.0000 </r>
       <r>   22.9128    0.0000 </r>
       <r>   28.0937    0.0000 </r>
       <r>   33.7768    0.0000 </r>
       <r>   37.7780    0.0000 </r>
      </set>
      <set comment="kpoint 39">
       <r>    1.6993    1.0000 </r>
       <r>    1.7934    1.0000 </r>
       <r>    3.9683    1.0000 </r>
       <r>    4.7602    1.0000 </r>
       <r>    5.5579    1.0283 </r>
       <r>    9.8221   -0.0000 </r>
       <r>   16.9125    0.0000 </r>
       <r>   17.4198    0.0000 </r>
       <r>   24.0937    0.0000 </r>
       <r>   25.7305    0.0000 </r>
       <r>   33.2939    0.0000 </r>
       <r>   38.6365    0.0000 </r>
      </set>
      <set comment="kpoint 40">
       <r>    1.5889    1.0000 </r>
       <r>    1.7388    1.0000 </r>
       <r>    3.9141    1.0000 </r>
       <r>    5.0305    1.0000 </r>
       <r>    5.7154    0.7012 </r>
       <r>   12.3660    0.0000 </r>
       <r>   13.9638    0.0000 </r>
       <r>   16.6916    0.0000 </r>
       <r>   24.3418    0.0000 </r>
       <r>   26.6537    0.0000 </r>
       <r>   31.1178    0.0000 </r>
       <r>   38.4511    0.0000 </r>
      </set>
      <set comment="kpoint 41">
       <r>    1.5275    1.0000 </r>
       <r>    1.7054    1.0000 </r>
       <r>    4.6963    1.0000 </r>
       <r>    4.6964    1.0000 </r>
       <r>    5.2856    1.0018 </r>
       <r>    9.3619   -0.0000 </r>
       <r>   18.6328    0.0000 </r>
       <r>   18.6328    0.0000 </r>
       <r>   21.9494    0.0000 </r>
       <r>   23.9353    0.0000 </r>
       <r>   33.0669    0.0000 </r>
       <r>   41.8962    0.0000 </r>
      </set>
      <set comment="kpoint 42">
       <r>    1.3445    1.0000 </r>
       <r>    1.3967    1.0000 </r>
       <r>    4.8600    1.0000 </r>
       <r>    5.0551    1.0000 </r>
       <r>    5.7530    0.5490 </r>
       <r>   12.0389    0.0000 </r>
       <r>   15.6217    0.0000 </r>
       <r>   17.3630    0.0000 </r>
       <r>   22.2128    0.0000 </r>
       <r>   24.3400    0.0000 </r>
       <r>   29.7312    0.0000 </r>
       <r>   41.9352    0.0000 </r>
      </set>
      <set comment="kpoint 43">
       <r>    1.2197    1.0000 </r>
       <r>    1.2197    1.0000 </r>
       <r>    4.9616    1.0000 </r>
       <r>    5.6495    0.9088 </r>
       <r>    5.6497    0.9081 </r>
       <r>   14.6581    0.0000 </r>
       <r>   14.6582    0.0000 </r>
       <r>   15.4775    0.0000 </r>
       <r>   23.1374    0.0000 </r>
       <r>   23.1374    0.0000 </r>
       <r>   28.0867    0.0000 </r>
       <r>   42.4993    0.0000 </r>
      </set>
      <set comment="kpoint 44">
       <r>    1.0467    1.0000 </r>
       <r>    1.0484    1.0000 </r>
       <r>    5.6234    0.9620 </r>
       <r>    5.6236    0.9616 </r>
       <r>    5.7306    0.6415 </r>
       <r>   14.2592    0.0000 </r>
       <r>   15.9879    0.0000 </r>
       <r>   15.9879    0.0000 </r>
       <r>   21.4160    0.0000 </r>
       <r>   22.3013    0.0000 </r>
       <r>   27.0109    0.0000 </r>
       <r>   44.4709    0.0000 </r>
      </set>
     </set>
     <set comment="spin 2">
      <set comment="kpoint 1">
       <r>   -1.8499    1.0000 </r>
       <r>    5.3454    1.0058 </r>
       <r>    5.3454    1.0058 </r>
       <r>    5.9202    0.0157 </r>
       <r>    7.3925   -0.0000 </r>
       <r>    7.3925   -0.0000 </r>
       <r>   28.2580    0.0000 </r>
       <r>   28.2580    0.0000 </r>
       <r>   30.9949    0.0000 </r>
       <r>   33.3807    0.0000 </r>
       <r>   36.4555    0.0000 </r>
       <r>   36.4555    0.0000 </r>
      </set>
      <set comment="kpoint 2">
       <r>   -0.7063    1.0000 </r>
       <r>    4.9832    1.0000 </r>
       <r>    5.1265    1.0000 </r>
       <r>    6.6332   -0.0000 </r>
       <r>    7.2151   -0.0000 </r>
       <r>    7.4886   -0.0000 </r>
       <r>   24.4002    0.0000 </r>
       <r>   26.4923    0.0000 </r>
       <r>   29.9122    0.0000 </r>
       <r>   31.4269    0.0000 </r>
       <r>   36.4835    0.0000 </r>
       <r>   36.5139    0.0000 </r>
      </set>
      <set comment="kpoint 3">
       <r>    0.8781    1.0000 </r>
       <r>    4.5843    1.0000 </r>
       <r>    4.9139    1.0000 </r>
       <r>    7.2240   -0.0000 </r>
       <r>    7.5927   -0.0000 </r>
       <r>    7.5960   -0.0000 </r>
       <r>   20.0937    0.0000 </r>
       <r>   24.7828    0.0000 </r>
       <r>   27.4200    0.0000 </r>
       <r>   31.2609    0.0000 </r>
       <r>   35.5195    0.0000 </r>
       <r>   38.4164    0.0000 </r>
      </set>
      <set comment="kpoint 4">
       <r>    2.0809    1.0000 </r>
       <r>    4.2889    1.0000 </r>
       <r>    5.3332    1.0047 </r>
       <r>    7.3363   -0.0000 </r>
       <r>    7.6920   -0.0000 </r>
       <r>    8.5575   -0.0000 </r>
       <r>   16.3001    0.0000 </r>
       <r>   23.5633    0.0000 </r>
       <r>   25.7233    0.0000 </r>
       <r>   31.0385    0.0000 </r>
       <r>   35.1992    0.0000 </r>
       <r>   40.5603    0.0000 </r>
      </set>
      <set comment="kpoint 5">
       <r>    2.3625    1.0000 </r>
       <r>    4.1803    1.0000 </r>
       <r>    5.9648   -0.0252 </r>
       <r>    7.3825   -0.0000 </r>
       <r>    7.7319   -0.0000 </r>
       <r>    9.0910   -0.0000 </r>
       <r>   14.4951    0.0000 </r>
       <r>   23.1225    0.0000 </r>
       <r>   25.0898    0.0000 </r>
       <r>   30.9451    0.0000 </r>
       <r>   35.1848    0.0000 </r>
       <r>   40.3749    0.0000 </r>
      </set>
      <set comment="kpoint 6">
       <r>   -2.2548    1.0000 </r>
       <r>    5.4985    1.0340 </r>
       <r>    5.4987    1.0340 </r>
       <r>    5.5650    1.0249 </r>
       <r>    7.3512   -0.0000 </r>
       <r>    7.5157   -0.0000 </r>
       <r>   29.3576    0.0000 </r>
       <r>   30.3393    0.0000 </r>
       <r>   30.3393    0.0000 </r>
       <r>   34.4645    0.0000 </r>
       <r>   36.8879    0.0000 </r>
       <r>   36.8881    0.0000 </r>
      </set>
      <set comment="kpoint 7">
       <r>    0.6497    1.0000 </r>
       <r>    4.6800    1.0000 </r>
       <r>    4.6885    1.0000 </r>
       <r>    7.2193   -0.0000 </r>
       <r>    7.5532   -0.0000 </r>
       <r>    7.6442   -0.0000 </r>
       <r>   22.2143    0.0000 </r>
       <r>   23.0734    0.0000 </r>
       <r>   26.6058    0.0000 </r>
       <r>   32.7428    0.0000 </r>
       <r>   37.1279    0.0000 </r>
       <r>   38.7337    0.0000 </r>
      </set>
      <set comment="kpoint 8">
       <r>    2.1367    1.0000 </r>
       <r>    4.3178    1.0000 </r>
       <r>    4.5775    1.0000 </r>
       <r>    7.2981   -0.0000 </r>
       <r>    7.6949   -0.0000 </r>
       <r>    8.8354   -0.0000 </r>
       <r>   18.3940    0.0000 </r>
       <r>   21.2717    0.0000 </r>
       <r>   24.7423    0.0000 </r>
       <r>   33.1344    0.0000 </r>
       <r>   37.8676    0.0000 </r>
       <r>   39.3839    0.0000 </r>
      </set>
      <set comment="kpoint 9">
       <r>    2.7955    1.0000 </r>
       <r>    4.1491    1.0000 </r>
       <r>    5.0405    1.0000 </r>
       <r>    7.4158   -0.0000 </r>
       <r>    7.7548   -0.0000 </r>
       <r>   10.1498   -0.0000 </r>
       <r>   15.1304    0.0000 </r>
       <r>   20.4341    0.0000 </r>
       <r>   23.8005    0.0000 </r>
       <r>   33.1192    0.0000 </r>
       <r>   38.6574    0.0000 </r>
       <r>   39.3957    0.0000 </r>
      </set>
      <set comment="kpoint 10">
       <r>   -1.4560    1.0000 </r>
       <r>    5.2701    1.0013 </r>
       <r>    5.4233    1.0183 </r>
       <r>    6.0107   -0.0355 </r>
       <r>    7.0740   -0.0000 </r>
       <r>    7.5878   -0.0000 </r>
       <r>   26.4834    0.0000 </r>
       <r>   28.9419    0.0000 </r>
       <r>   29.8011    0.0000 </r>
       <r>   33.6675    0.0000 </r>
       <r>   34.2589    0.0000 </r>
       <r>   35.0978    0.0000 </r>
      </set>
      <set comment="kpoint 11">
       <r>    3.2026    1.0000 </r>
       <r>    4.0992    1.0000 </r>
       <r>    4.4638    1.0000 </r>
       <r>    7.4117   -0.0000 </r>
       <r>    7.7361   -0.0000 </r>
       <r>   10.5956   -0.0000 </r>
       <r>   16.8315    0.0000 </r>
       <r>   17.7241    0.0000 </r>
       <r>   23.6226    0.0000 </r>
       <r>   34.4889    0.0000 </r>
       <r>   37.4987    0.0000 </r>
       <r>   43.5337    0.0000 </r>
      </set>
      <set comment="kpoint 12">
       <r>    3.4679    1.0000 </r>
       <r>    4.1103    1.0000 </r>
       <r>    4.5168    1.0000 </r>
       <r>    7.5192   -0.0000 </r>
       <r>    7.6992   -0.0000 </r>
       <r>   12.3222    0.0000 </r>
       <r>   14.5305    0.0000 </r>
       <r>   17.0303    0.0000 </r>
       <r>   23.2832    0.0000 </r>
       <r>   35.0622    0.0000 </r>
       <r>   37.3448    0.0000 </r>
       <r>   43.4034    0.0000 </r>
      </set>
      <set comment="kpoint 13">
       <r>   -0.0261    1.0000 </r>
       <r>    4.8908    1.0000 </r>
       <r>    5.1795    1.0001 </r>
       <r>    6.8259   -0.0000 </r>
       <r>    6.9776   -0.0000 </r>
       <r>    7.6614   -0.0000 </r>
       <r>   22.2306    0.0000 </r>
       <r>   26.8391    0.0000 </r>
       <r>   28.6965    0.0000 </r>
       <r>   31.9951    0.0000 </r>
       <r>   33.7123    0.0000 </r>
       <r>   35.5438    0.0000 </r>
      </set>
      <set comment="kpoint 14">
       <r>   -0.3476    1.0000 </r>
       <r>    5.1435    1.0001 </r>
       <r>    5.1792    1.0001 </r>
       <r>    6.6028   -0.0000 </r>
       <r>    6.7754   -0.0000 </r>
       <r>    7.7340   -0.0000 </r>
       <r>   24.2604    0.0000 </r>
       <r>   25.5323    0.0000 </r>
       <r>   29.8967    0.0000 </r>
       <r>   31.1890    0.0000 </r>
       <r>   33.6591    0.0000 </r>
       <r>   36.9528    0.0000 </r>
      </set>
      <set comment="kpoint 15">
       <r>    1.5044    1.0000 </r>
       <r>    4.5310    1.0000 </r>
       <r>    5.1629    1.0001 </r>
       <r>    7.1420   -0.0000 </r>
       <r>    7.7502   -0.0000 </r>
       <r>    7.7759   -0.0000 </r>
       <r>   18.0448    0.0000 </r>
       <r>   25.1240    0.0000 </r>
       <r>   27.0639    0.0000 </r>
       <r>   30.9598    0.0000 </r>
       <r>   33.6606    0.0000 </r>
       <r>   37.3678    0.0000 </r>
      </set>
      <set comment="kpoint 16">
       <r>    1.1817    1.0000 </r>
       <r>    4.7430    1.0000 </r>
       <r>    4.9428    1.0000 </r>
       <r>    6.8165   -0.0000 </r>
       <r>    7.4840   -0.0000 </r>
       <r>    7.9484   -0.0000 </r>
       <r>   20.3552    0.0000 </r>
       <r>   23.2918    0.0000 </r>
       <r>   28.3176    0.0000 </r>
       <r>   30.7236    0.0000 </r>
       <r>   34.1972    0.0000 </r>
       <r>   37.5586    0.0000 </r>
      </set>
      <set comment="kpoint 17">
       <r>    2.2243    1.0000 </r>
       <r>    4.3160    1.0000 </r>
       <r>    5.8499    0.1730 </r>
       <r>    7.2665   -0.0000 </r>
       <r>    8.0499   -0.0000 </r>
       <r>    8.3908   -0.0000 </r>
       <r>   14.9874    0.0000 </r>
       <r>   24.1738    0.0000 </r>
       <r>   25.8731    0.0000 </r>
       <r>   30.6089    0.0000 </r>
       <r>   33.8332    0.0000 </r>
       <r>   38.4692    0.0000 </r>
      </set>
      <set comment="kpoint 18">
       <r>    2.3622    1.0000 </r>
       <r>    4.4873    1.0000 </r>
       <r>    5.0019    1.0000 </r>
       <r>    7.0602   -0.0000 </r>
       <r>    7.8745   -0.0000 </r>
       <r>    8.8726   -0.0000 </r>
       <r>   16.4765    0.0000 </r>
       <r>   22.0434    0.0000 </r>
       <r>   26.6675    0.0000 </r>
       <r>   30.9856    0.0000 </r>
       <r>   35.2156    0.0000 </r>
       <r>   37.3612    0.0000 </r>
      </set>
      <set comment="kpoint 19">
       <r>    2.5168    1.0000 </r>
       <r>    4.3179    1.0000 </r>
       <r>    4.8444    1.0000 </r>
       <r>    6.9214   -0.0000 </r>
       <r>    7.7414   -0.0000 </r>
       <r>    9.1401   -0.0000 </r>
       <r>   18.6078    0.0000 </r>
       <r>   19.2739    0.0000 </r>
       <r>   27.9672    0.0000 </r>
       <r>   30.3435    0.0000 </r>
       <r>   34.0940    0.0000 </r>
       <r>   41.7580    0.0000 </r>
      </set>
      <set comment="kpoint 20">
       <r>    2.6423    1.0000 </r>
       <r>    4.4144    1.0000 </r>
       <r>    5.2721    1.0014 </r>
       <r>    7.1348   -0.0000 </r>
       <r>    8.0714   -0.0000 </r>
       <r>    9.6878   -0.0000 </r>
       <r>   14.5062    0.0000 </r>
       <r>   21.5823    0.0000 </r>
       <r>   26.0719    0.0000 </r>
       <r>   31.0653    0.0000 </r>
       <r>   36.1716    0.0000 </r>
       <r>   36.8130    0.0000 </r>
      </set>
      <set comment="kpoint 21">
       <r>    3.2527    1.0000 </r>
       <r>    4.2708    1.0000 </r>
       <r>    4.6715    1.0000 </r>
       <r>    7.1646   -0.0000 </r>
       <r>    7.7907   -0.0000 </r>
       <r>   10.9869   -0.0000 </r>
       <r>   15.3300    0.0000 </r>
       <r>   18.1499    0.0000 </r>
       <r>   27.2613    0.0000 </r>
       <r>   31.0765    0.0000 </r>
       <r>   34.0733    0.0000 </r>
       <r>   41.1357    0.0000 </r>
      </set>
      <set comment="kpoint 22">
       <r>    3.9230    1.0000 </r>
       <r>    4.1745    1.0000 </r>
       <r>    4.1746    1.0000 </r>
       <r>    7.5015   -0.0000 </r>
       <r>    7.5017   -0.0000 </r>
       <r>   13.6657    0.0000 </r>
       <r>   13.6658    0.0000 </r>
       <r>   16.0870    0.0000 </r>
       <r>   27.4579    0.0000 </r>
       <r>   32.3653    0.0000 </r>
       <r>   32.3655    0.0000 </r>
       <r>   40.9094    0.0000 </r>
      </set>
      <set comment="kpoint 23">
       <r>    2.0718    1.0000 </r>
       <r>    4.2904    1.0000 </r>
       <r>    4.2904    1.0000 </r>
       <r>    7.5323   -0.0000 </r>
       <r>    7.5323   -0.0000 </r>
       <r>    8.8743   -0.0000 </r>
       <r>   20.5996    0.0000 </r>
       <r>   20.5996    0.0000 </r>
       <r>   22.3852    0.0000 </r>
       <r>   35.4561    0.0000 </r>
       <r>   39.8987    0.0000 </r>
       <r>   39.8987    0.0000 </r>
      </set>
      <set comment="kpoint 24">
       <r>    3.1900    1.0000 </r>
       <r>    4.0593    1.0000 </r>
       <r>    4.2978    1.0000 </r>
       <r>    7.5756   -0.0000 </r>
       <r>    7.7059   -0.0000 </r>
       <r>   10.4451   -0.0000 </r>
       <r>   16.9798    0.0000 </r>
       <r>   19.5639    0.0000 </r>
       <r>   20.6287    0.0000 </r>
       <r>   36.6690    0.0000 </r>
       <r>   40.8556    0.0000 </r>
       <r>   41.9527    0.0000 </r>
      </set>
      <set comment="kpoint 25">
       <r>    3.3331    1.0000 </r>
       <r>    3.9848    1.0000 </r>
       <r>    4.6849    1.0000 </r>
       <r>    7.6065   -0.0000 </r>
       <r>    7.7586   -0.0000 </r>
       <r>   11.8192    0.0000 </r>
       <r>   14.6616    0.0000 </r>
       <r>   19.2077    0.0000 </r>
       <r>   20.1375    0.0000 </r>
       <r>   36.7642    0.0000 </r>
       <r>   41.6379    0.0000 </r>
       <r>   42.0391    0.0000 </r>
      </set>
      <set comment="kpoint 26">
       <r>   -0.6981    1.0000 </r>
       <r>    5.5103    1.0351 </r>
       <r>    5.5105    1.0352 </r>
       <r>    6.0366   -0.0331 </r>
       <r>    6.4636   -0.0000 </r>
       <r>    7.8107   -0.0000 </r>
       <r>   25.9747    0.0000 </r>
       <r>   27.9132    0.0000 </r>
       <r>   27.9132    0.0000 </r>
       <r>   29.5358    0.0000 </r>
       <r>   36.2557    0.0000 </r>
       <r>   36.2557    0.0000 </r>
      </set>
      <set comment="kpoint 27">
       <r>    3.7296    1.0000 </r>
       <r>    4.0322    1.0000 </r>
       <r>    4.2228    1.0000 </r>
       <r>    7.6880   -0.0000 </r>
       <r>    7.7493   -0.0000 </r>
       <r>   12.6536    0.0000 </r>
       <r>   15.6906    0.0000 </r>
       <r>   16.7708    0.0000 </r>
       <r>   19.4774    0.0000 </r>
       <r>   39.2811    0.0000 </r>
       <r>   41.1654    0.0000 </r>
       <r>   44.7222    0.0000 </r>
      </set>
      <set comment="kpoint 28">
       <r>    0.6407    1.0000 </r>
       <r>    5.2673    1.0012 </r>
       <r>    5.3250    1.0040 </r>
       <r>    6.2411   -0.0019 </r>
       <r>    6.7282   -0.0000 </r>
       <r>    7.9953   -0.0000 </r>
       <r>   22.7827    0.0000 </r>
       <r>   25.8182    0.0000 </r>
       <r>   25.8864    0.0000 </r>
       <r>   29.5226    0.0000 </r>
       <r>   35.7296    0.0000 </r>
       <r>   36.9711    0.0000 </r>
      </set>
      <set comment="kpoint 29">
       <r>    2.0622    1.0000 </r>
       <r>    4.7789    1.0000 </r>
       <r>    5.0331    1.0000 </r>
       <r>    6.6241   -0.0000 </r>
       <r>    7.6636   -0.0000 </r>
       <r>    8.4057   -0.0000 </r>
       <r>   18.5150    0.0000 </r>
       <r>   24.1156    0.0000 </r>
       <r>   24.5849    0.0000 </r>
       <r>   31.0371    0.0000 </r>
       <r>   34.7019    0.0000 </r>
       <r>   36.9194    0.0000 </r>
      </set>
      <set comment="kpoint 30">
       <r>    1.9488    1.0000 </r>
       <r>    4.7188    1.0000 </r>
       <r>    5.4037    1.0143 </r>
       <r>    6.2975   -0.0005 </r>
       <r>    7.3620   -0.0000 </r>
       <r>    8.4419   -0.0000 </r>
       <r>   20.9085    0.0000 </r>
       <r>   21.4771    0.0000 </r>
       <r>   26.7618    0.0000 </r>
       <r>   28.2485    0.0000 </r>
       <r>   35.2807    0.0000 </r>
       <r>   40.3891    0.0000 </r>
      </set>
      <set comment="kpoint 31">
       <r>    2.7517    1.0000 </r>
       <r>    4.7864    1.0000 </r>
       <r>    4.8517    1.0000 </r>
       <r>    6.7882   -0.0000 </r>
       <r>    8.3323   -0.0000 </r>
       <r>    9.5401   -0.0000 </r>
       <r>   15.1575    0.0000 </r>
       <r>   23.0166    0.0000 </r>
       <r>   23.9134    0.0000 </r>
       <r>   32.9627    0.0000 </r>
       <r>   34.1732    0.0000 </r>
       <r>   35.9560    0.0000 </r>
      </set>
      <set comment="kpoint 32">
       <r>    2.9903    1.0000 </r>
       <r>    4.2625    1.0000 </r>
       <r>    5.1934    1.0002 </r>
       <r>    6.6917   -0.0000 </r>
       <r>    7.8885   -0.0000 </r>
       <r>    9.8146   -0.0000 </r>
       <r>   17.0440    0.0000 </r>
       <r>   19.9556    0.0000 </r>
       <r>   26.1971    0.0000 </r>
       <r>   29.6373    0.0000 </r>
       <r>   34.2694    0.0000 </r>
       <r>   39.1617    0.0000 </r>
      </set>
      <set comment="kpoint 33">
       <r>    3.2642    1.0000 </r>
       <r>    4.2892    1.0000 </r>
       <r>    4.9980    1.0000 </r>
       <r>    6.8121   -0.0000 </r>
       <r>    8.1547   -0.0000 </r>
       <r>   11.3253    0.0000 </r>
       <r>   14.6137    0.0000 </r>
       <r>   19.4578    0.0000 </r>
       <r>   25.8291    0.0000 </r>
       <r>   31.2553    0.0000 </r>
       <r>   33.1011    0.0000 </r>
       <r>   37.9270    0.0000 </r>
      </set>
      <set comment="kpoint 34">
       <r>    3.7325    1.0000 </r>
       <r>    3.8928    1.0000 </r>
       <r>    4.8566    1.0000 </r>
       <r>    7.2061   -0.0000 </r>
       <r>    7.7804   -0.0000 </r>
       <r>   12.2587    0.0000 </r>
       <r>   15.5745    0.0000 </r>
       <r>   16.6924    0.0000 </r>
       <r>   28.1520    0.0000 </r>
       <r>   29.1200    0.0000 </r>
       <r>   32.2611    0.0000 </r>
       <r>   37.9374    0.0000 </r>
      </set>
      <set comment="kpoint 35">
       <r>    4.0279    1.0000 </r>
       <r>    4.0279    1.0000 </r>
       <r>    4.0280    1.0000 </r>
       <r>    7.7815   -0.0000 </r>
       <r>    7.7815   -0.0000 </r>
       <r>   15.3033    0.0000 </r>
       <r>   15.3033    0.0000 </r>
       <r>   15.3035    0.0000 </r>
       <r>   17.2728    0.0000 </r>
       <r>   44.3710    0.0000 </r>
       <r>   44.3710    0.0000 </r>
       <r>   44.3711    0.0000 </r>
      </set>
      <set comment="kpoint 36">
       <r>    1.7331    1.0000 </r>
       <r>    5.0564    1.0000 </r>
       <r>    5.8736    0.1063 </r>
       <r>    5.8737    0.1059 </r>
       <r>    6.8108   -0.0000 </r>
       <r>    8.3672   -0.0000 </r>
       <r>   23.4277    0.0000 </r>
       <r>   23.4277    0.0000 </r>
       <r>   23.8443    0.0000 </r>
       <r>   26.0440    0.0000 </r>
       <r>   39.8879    0.0000 </r>
       <r>   39.8879    0.0000 </r>
      </set>
      <set comment="kpoint 37">
       <r>    2.7570    1.0000 </r>
       <r>    4.2986    1.0000 </r>
       <r>    5.9198    0.0163 </r>
       <r>    6.3441   -0.0002 </r>
       <r>    7.5472   -0.0000 </r>
       <r>    9.2537   -0.0000 </r>
       <r>   19.3567    0.0000 </r>
       <r>   21.4389    0.0000 </r>
       <r>   23.8512    0.0000 </r>
       <r>   26.6141    0.0000 </r>
       <r>   37.9381    0.0000 </r>
       <r>   38.9122    0.0000 </r>
      </set>
      <set comment="kpoint 38">
       <r>    3.2751    1.0000 </r>
       <r>    3.8858    1.0000 </r>
       <r>    5.8291    0.2420 </r>
       <r>    6.5548   -0.0000 </r>
       <r>    8.2338   -0.0000 </r>
       <r>   11.2157   -0.0000 </r>
       <r>   15.6035    0.0000 </r>
       <r>   20.2375    0.0000 </r>
       <r>   23.5628    0.0000 </r>
       <r>   28.4893    0.0000 </r>
       <r>   34.6418    0.0000 </r>
       <r>   38.2674    0.0000 </r>
      </set>
      <set comment="kpoint 39">
       <r>    3.2622    1.0000 </r>
       <r>    3.7498    1.0000 </r>
       <r>    5.9846   -0.0326 </r>
       <r>    6.9295   -0.0000 </r>
       <r>    7.9061   -0.0000 </r>
       <r>   11.0796   -0.0000 </r>
       <r>   17.7562    0.0000 </r>
       <r>   18.1364    0.0000 </r>
       <r>   24.7018    0.0000 </r>
       <r>   26.2638    0.0000 </r>
       <r>   34.1270    0.0000 </r>
       <r>   39.1460    0.0000 </r>
      </set>
      <set comment="kpoint 40">
       <r>    3.4302    1.0000 </r>
       <r>    3.5317    1.0000 </r>
       <r>    5.8909    0.0664 </r>
       <r>    7.2533   -0.0000 </r>
       <r>    8.0805   -0.0000 </r>
       <r>   13.3283    0.0000 </r>
       <r>   14.9503    0.0000 </r>
       <r>   17.4132    0.0000 </r>
       <r>   24.9336    0.0000 </r>
       <r>   27.0926    0.0000 </r>
       <r>   32.0846    0.0000 </r>
       <r>   38.9621    0.0000 </r>
      </set>
      <set comment="kpoint 41">
       <r>    3.0648    1.0000 </r>
       <r>    3.7130    1.0000 </r>
       <r>    6.8123   -0.0000 </r>
       <r>    6.8125   -0.0000 </r>
       <r>    7.6118   -0.0000 </r>
       <r>   10.5995   -0.0000 </r>
       <r>   19.2410    0.0000 </r>
       <r>   19.2411    0.0000 </r>
       <r>   22.8110    0.0000 </r>
       <r>   24.5886    0.0000 </r>
       <r>   33.9099    0.0000 </r>
       <r>   42.3332    0.0000 </r>
      </set>
      <set comment="kpoint 42">
       <r>    3.1354    1.0000 </r>
       <r>    3.2810    1.0000 </r>
       <r>    7.0331   -0.0000 </r>
       <r>    7.2312   -0.0000 </r>
       <r>    8.1390   -0.0000 </r>
       <r>   12.9128    0.0000 </r>
       <r>   16.3241    0.0000 </r>
       <r>   17.8794    0.0000 </r>
       <r>   23.0578    0.0000 </r>
       <r>   24.9741    0.0000 </r>
       <r>   30.7212    0.0000 </r>
       <r>   42.3523    0.0000 </r>
      </set>
      <set comment="kpoint 43">
       <r>    3.0733    1.0000 </r>
       <r>    3.0733    1.0000 </r>
       <r>    7.1326   -0.0000 </r>
       <r>    7.9944   -0.0000 </r>
       <r>    7.9948   -0.0000 </r>
       <r>   15.3062    0.0000 </r>
       <r>   15.3064    0.0000 </r>
       <r>   16.0527    0.0000 </r>
       <r>   23.8762    0.0000 </r>
       <r>   23.8763    0.0000 </r>
       <r>   29.1752    0.0000 </r>
       <r>   42.9036    0.0000 </r>
      </set>
      <set comment="kpoint 44">
       <r>    2.8866    1.0000 </r>
       <r>    2.9214    1.0000 </r>
       <r>    7.9607   -0.0000 </r>
       <r>    7.9610   -0.0000 </r>
       <r>    8.1181   -0.0000 </r>
       <r>   14.7852    0.0000 </r>
       <r>   16.3641    0.0000 </r>
       <r>   16.3643    0.0000 </r>
       <r>   22.4224    0.0000 </r>
       <r>   23.1654    0.0000 </r>
       <r>   28.1279    0.0000 </r>
       <r>   44.7809    0.0000 </r>
      </set>
     </set>
    </set>
   </array>
  </eigenvalues>
  <separator name="orbital magnetization" >
   <v name="MAGDIPOLOUT">      0.00000000      0.00000000      0.00000000</v>
  </separator>
  <dos>
   <i name="efermi">      5.76459862 </i>
   <total>
    <array>
     <dimension dim="1">gridpoints</dimension>
     <dimension dim="2">spin</dimension>
     <field>energy</field>
     <field>total</field>
     <field>integrated</field>
     <set>
      <set comment="spin 1">
       <r>    -4.8132     0.0000     0.0000 </r>
       <r>    -4.6400     0.0000     0.0000 </r>
       <r>    -4.4668     0.0000     0.0000 </r>
       <r>    -4.2937     0.0000     0.0000 </r>
       <r>    -4.1205    -0.0000    -0.0000 </r>
       <r>    -3.9473    -0.0000    -0.0000 </r>
       <r>    -3.7741    -0.0000    -0.0000 </r>
       <r>    -3.6009    -0.0000    -0.0000 </r>
       <r>    -3.4277    -0.0000    -0.0000 </r>
       <r>    -3.2545    -0.0000    -0.0000 </r>
       <r>    -3.0814    -0.0000    -0.0000 </r>
       <r>    -2.9082    -0.0001    -0.0000 </r>
       <r>    -2.7350    -0.0010    -0.0002 </r>
       <r>    -2.5618     0.0046     0.0006 </r>
       <r>    -2.3886     0.0217     0.0044 </r>
       <r>    -2.2154     0.0108     0.0062 </r>
       <r>    -2.0422     0.0220     0.0101 </r>
       <r>    -1.8691     0.0195     0.0134 </r>
       <r>    -1.6959     0.0546     0.0229 </r>
       <r>    -1.5227     0.0819     0.0371 </r>
       <r>    -1.3495     0.0076     0.0384 </r>
       <r>    -1.1763    -0.0082     0.0370 </r>
       <r>    -1.0031     0.0456     0.0449 </r>
       <r>    -0.8299     0.1092     0.0638 </r>
       <r>    -0.6568     0.0649     0.0750 </r>
       <r>    -0.4836     0.0884     0.0903 </r>
       <r>    -0.3104     0.0921     0.1063 </r>
       <r>    -0.1372     0.0577     0.1163 </r>
       <r>     0.0360    -0.0105     0.1145 </r>
       <r>     0.2092     0.0491     0.1230 </r>
       <r>     0.3824     0.2258     0.1621 </r>
       <r>     0.5555     0.1702     0.1916 </r>
       <r>     0.7287     0.2399     0.2331 </r>
       <r>     0.9019     0.2559     0.2774 </r>
       <r>     1.0751     0.2870     0.3271 </r>
       <r>     1.2483     0.6667     0.4426 </r>
       <r>     1.4215     0.8724     0.5937 </r>
       <r>     1.5947     0.7534     0.7242 </r>
       <r>     1.7678     0.9599     0.8904 </r>
       <r>     1.9410     0.6789     1.0080 </r>
       <r>     2.1142     0.4287     1.0823 </r>
       <r>     2.2874     0.5853     1.1836 </r>
       <r>     2.4606     1.3644     1.4199 </r>
       <r>     2.6338     1.4945     1.6787 </r>
       <r>     2.8070     0.8381     1.8239 </r>
       <r>     2.9801     1.1164     2.0172 </r>
       <r>     3.1533     1.7355     2.3178 </r>
       <r>     3.3265     1.3415     2.5501 </r>
       <r>     3.4997     0.6784     2.6676 </r>
       <r>     3.6729     0.3314     2.7250 </r>
       <r>     3.8461     0.6896     2.8444 </r>
       <r>     4.0193     0.6924     2.9643 </r>
       <r>     4.1924     0.3240     3.0204 </r>
       <r>     4.3656     0.9413     3.1835 </r>
       <r>     4.5388     1.6524     3.4696 </r>
       <r>     4.7120     1.9778     3.8122 </r>
       <r>     4.8852     2.3778     4.2240 </r>
       <r>     5.0584     1.9578     4.5630 </r>
       <r>     5.2316     0.8583     4.7117 </r>
       <r>     5.4047     0.9208     4.8711 </r>
       <r>     5.5779     0.9856     5.0418 </r>
       <r>     5.7511     0.6564     5.1555 </r>
       <r>     5.9243     0.4351     5.2309 </r>
       <r>     6.0975     0.2633     5.2765 </r>
       <r>     6.2707     0.2175     5.3141 </r>
       <r>     6.4439     0.1551     5.3410 </r>
       <r>     6.6170     0.0938     5.3572 </r>
       <r>     6.7902     0.1412     5.3817 </r>
       <r>     6.9634     0.3326     5.4393 </r>
       <r>     7.1366     0.1954     5.4731 </r>
       <r>     7.3098     0.0877     5.4883 </r>
       <r>     7.4830     0.1214     5.5093 </r>
       <r>     7.6562     0.0974     5.5262 </r>
       <r>     7.8293    -0.0082     5.5248 </r>
       <r>     8.0025     0.0245     5.5290 </r>
       <r>     8.1757     0.2591     5.5739 </r>
       <r>     8.3489     0.2475     5.6168 </r>
       <r>     8.5221     0.0742     5.6296 </r>
       <r>     8.6953     0.1964     5.6636 </r>
       <r>     8.8685     0.1718     5.6934 </r>
       <r>     9.0416     0.1097     5.7124 </r>
       <r>     9.2148     0.0331     5.7181 </r>
       <r>     9.3880     0.0249     5.7224 </r>
       <r>     9.5612     0.1626     5.7506 </r>
       <r>     9.7344     0.1465     5.7760 </r>
       <r>     9.9076     0.1077     5.7946 </r>
       <r>    10.0808     0.1638     5.8230 </r>
       <r>    10.2539     0.1170     5.8432 </r>
       <r>    10.4271     0.0096     5.8449 </r>
       <r>    10.6003     0.0319     5.8504 </r>
       <r>    10.7735     0.0256     5.8548 </r>
       <r>    10.9467     0.0436     5.8624 </r>
       <r>    11.1199     0.1615     5.8904 </r>
       <r>    11.2931     0.1007     5.9078 </r>
       <r>    11.4662     0.0858     5.9227 </r>
       <r>    11.6394     0.0347     5.9287 </r>
       <r>    11.8126    -0.0077     5.9273 </r>
       <r>    11.9858     0.0416     5.9345 </r>
       <r>    12.1590     0.0842     5.9491 </r>
       <r>    12.3322     0.0701     5.9613 </r>
       <r>    12.5054     0.1264     5.9831 </r>
       <r>    12.6785     0.0534     5.9924 </r>
       <r>    12.8517    -0.0072     5.9911 </r>
       <r>    13.0249     0.0563     6.0009 </r>
       <r>    13.1981     0.1426     6.0256 </r>
       <r>    13.3713     0.2045     6.0610 </r>
       <r>    13.5445     0.1746     6.0912 </r>
       <r>    13.7177     0.0918     6.1071 </r>
       <r>    13.8908     0.2479     6.1501 </r>
       <r>    14.0640     0.3371     6.2084 </r>
       <r>    14.2372     0.2236     6.2472 </r>
       <r>    14.4104     0.1302     6.2697 </r>
       <r>    14.5836     0.2003     6.3044 </r>
       <r>    14.7568     0.2471     6.3472 </r>
       <r>    14.9300     0.0553     6.3568 </r>
       <r>    15.1031     0.0477     6.3650 </r>
       <r>    15.2763     0.1532     6.3916 </r>
       <r>    15.4495     0.2173     6.4292 </r>
       <r>    15.6227     0.1481     6.4549 </r>
       <r>    15.7959     0.1670     6.4838 </r>
       <r>    15.9691     0.3840     6.5503 </r>
       <r>    16.1423     0.4308     6.6249 </r>
       <r>    16.3154     0.1457     6.6501 </r>
       <r>    16.4886    -0.0063     6.6490 </r>
       <r>    16.6618     0.0472     6.6572 </r>
       <r>    16.8350     0.1530     6.6837 </r>
       <r>    17.0082     0.2237     6.7225 </r>
       <r>    17.1814     0.1203     6.7433 </r>
       <r>    17.3546     0.2643     6.7891 </r>
       <r>    17.5277     0.4959     6.8750 </r>
       <r>    17.7009     0.2972     6.9264 </r>
       <r>    17.8741     0.0749     6.9394 </r>
       <r>    18.0473    -0.0058     6.9384 </r>
       <r>    18.2205    -0.0124     6.9362 </r>
       <r>    18.3937     0.0271     6.9409 </r>
       <r>    18.5669     0.2326     6.9812 </r>
       <r>    18.7400     0.3053     7.0341 </r>
       <r>    18.9132     0.2250     7.0731 </r>
       <r>    19.0864     0.0723     7.0856 </r>
       <r>    19.2596     0.2154     7.1229 </r>
       <r>    19.4328     0.2369     7.1639 </r>
       <r>    19.6060     0.2605     7.2090 </r>
       <r>    19.7792     0.2889     7.2591 </r>
       <r>    19.9523     0.3078     7.3124 </r>
       <r>    20.1255     0.1714     7.3421 </r>
       <r>    20.2987     0.0456     7.3500 </r>
       <r>    20.4719    -0.0059     7.3489 </r>
       <r>    20.6451     0.1665     7.3778 </r>
       <r>    20.8183     0.3096     7.4314 </r>
       <r>    20.9915     0.1547     7.4582 </r>
       <r>    21.1646     0.0569     7.4680 </r>
       <r>    21.3378     0.0288     7.4730 </r>
       <r>    21.5110     0.2855     7.5225 </r>
       <r>    21.6842     0.3047     7.5752 </r>
       <r>    21.8574     0.0379     7.5818 </r>
       <r>    22.0306     0.0379     7.5884 </r>
       <r>    22.2038     0.1681     7.6175 </r>
       <r>    22.3769     0.2042     7.6529 </r>
       <r>    22.5501     0.1809     7.6842 </r>
       <r>    22.7233     0.3005     7.7362 </r>
       <r>    22.8965     0.3145     7.7907 </r>
       <r>    23.0697     0.2277     7.8301 </r>
       <r>    23.2429     0.3984     7.8991 </r>
       <r>    23.4161     0.3653     7.9624 </r>
       <r>    23.5892     0.1683     7.9915 </r>
       <r>    23.7624     0.1092     8.0105 </r>
       <r>    23.9356     0.1776     8.0412 </r>
       <r>    24.1088     0.3754     8.1062 </r>
       <r>    24.2820     0.4289     8.1805 </r>
       <r>    24.4552     0.3126     8.2346 </r>
       <r>    24.6284     0.1266     8.2566 </r>
       <r>    24.8015    -0.0106     8.2547 </r>
       <r>    24.9747     0.1499     8.2807 </r>
       <r>    25.1479     0.3031     8.3332 </r>
       <r>    25.3211     0.2555     8.3774 </r>
       <r>    25.4943     0.2079     8.4134 </r>
       <r>    25.6675     0.2306     8.4534 </r>
       <r>    25.8407     0.4138     8.5250 </r>
       <r>    26.0138     0.1923     8.5583 </r>
       <r>    26.1870     0.2924     8.6090 </r>
       <r>    26.3602     0.4852     8.6930 </r>
       <r>    26.5334     0.2084     8.7291 </r>
       <r>    26.7066     0.3136     8.7834 </r>
       <r>    26.8798     0.3523     8.8444 </r>
       <r>    27.0530     0.0774     8.8578 </r>
       <r>    27.2261     0.0004     8.8579 </r>
       <r>    27.3993     0.0736     8.8706 </r>
       <r>    27.5725     0.1072     8.8892 </r>
       <r>    27.7457     0.1375     8.9130 </r>
       <r>    27.9189     0.3327     8.9706 </r>
       <r>    28.0921     0.3078     9.0239 </r>
       <r>    28.2653     0.2160     9.0613 </r>
       <r>    28.4384     0.0076     9.0627 </r>
       <r>    28.6116     0.0009     9.0628 </r>
       <r>    28.7848     0.1179     9.0832 </r>
       <r>    28.9580     0.1701     9.1127 </r>
       <r>    29.1312     0.2516     9.1563 </r>
       <r>    29.3044     0.2578     9.2009 </r>
       <r>    29.4776     0.1005     9.2183 </r>
       <r>    29.6507     0.1740     9.2484 </r>
       <r>    29.8239     0.2068     9.2842 </r>
       <r>    29.9971     0.0954     9.3008 </r>
       <r>    30.1703     0.1676     9.3298 </r>
       <r>    30.3435     0.2354     9.3706 </r>
       <r>    30.5167     0.5389     9.4639 </r>
       <r>    30.6899     0.5961     9.5671 </r>
       <r>    30.8630     0.3143     9.6216 </r>
       <r>    31.0362     0.1894     9.6544 </r>
       <r>    31.2094     0.2366     9.6953 </r>
       <r>    31.3826     0.1155     9.7153 </r>
       <r>    31.5558     0.1738     9.7454 </r>
       <r>    31.7290     0.1382     9.7694 </r>
       <r>    31.9022     0.0511     9.7782 </r>
       <r>    32.0753     0.0137     9.7806 </r>
       <r>    32.2485     0.0540     9.7899 </r>
       <r>    32.4217     0.0610     9.8005 </r>
       <r>    32.5949     0.1322     9.8234 </r>
       <r>    32.7681     0.1599     9.8511 </r>
       <r>    32.9413     0.3163     9.9059 </r>
       <r>    33.1145     0.5378     9.9990 </r>
       <r>    33.2876     0.5011    10.0858 </r>
       <r>    33.4608     0.2242    10.1246 </r>
       <r>    33.6340     0.2206    10.1628 </r>
       <r>    33.8072     0.6685    10.2786 </r>
       <r>    33.9804     0.4741    10.3607 </r>
       <r>    34.1536     0.0800    10.3745 </r>
       <r>    34.3268     0.1016    10.3921 </r>
       <r>    34.4999     0.2258    10.4312 </r>
       <r>    34.6731     0.2290    10.4709 </r>
       <r>    34.8463     0.2797    10.5193 </r>
       <r>    35.0195     0.3718    10.5837 </r>
       <r>    35.1927     0.1459    10.6090 </r>
       <r>    35.3659     0.2065    10.6448 </r>
       <r>    35.5391     0.1162    10.6649 </r>
       <r>    35.7122     0.0451    10.6727 </r>
       <r>    35.8854     0.1462    10.6980 </r>
       <r>    36.0586     0.2390    10.7394 </r>
       <r>    36.2318     0.2833    10.7885 </r>
       <r>    36.4050     0.1796    10.8196 </r>
       <r>    36.5782     0.2441    10.8619 </r>
       <r>    36.7514     0.3153    10.9165 </r>
       <r>    36.9245     0.3180    10.9715 </r>
       <r>    37.0977     0.4748    11.0538 </r>
       <r>    37.2709     0.5617    11.1510 </r>
       <r>    37.4441     0.2485    11.1941 </r>
       <r>    37.6173     0.1752    11.2244 </r>
       <r>    37.7905     0.1147    11.2443 </r>
       <r>    37.9637     0.0401    11.2512 </r>
       <r>    38.1368     0.1188    11.2718 </r>
       <r>    38.3100     0.4574    11.3510 </r>
       <r>    38.4832     0.5390    11.4444 </r>
       <r>    38.6564     0.2441    11.4866 </r>
       <r>    38.8296     0.0738    11.4994 </r>
       <r>    39.0028     0.1749    11.5297 </r>
       <r>    39.1760     0.2201    11.5678 </r>
       <r>    39.3491     0.2054    11.6034 </r>
       <r>    39.5223     0.1222    11.6246 </r>
       <r>    39.6955     0.0862    11.6395 </r>
       <r>    39.8687     0.0325    11.6451 </r>
       <r>    40.0419     0.1007    11.6625 </r>
       <r>    40.2151     0.0724    11.6751 </r>
       <r>    40.3883     0.2410    11.7168 </r>
       <r>    40.5614     0.3178    11.7719 </r>
       <r>    40.7346     0.0680    11.7837 </r>
       <r>    40.9078    -0.0137    11.7813 </r>
       <r>    41.0810     0.0687    11.7932 </r>
       <r>    41.2542     0.1436    11.8181 </r>
       <r>    41.4274     0.1063    11.8365 </r>
       <r>    41.6006     0.0274    11.8412 </r>
       <r>    41.7737     0.0367    11.8476 </r>
       <r>    41.9469     0.2209    11.8858 </r>
       <r>    42.1201     0.1353    11.9093 </r>
       <r>    42.2933    -0.0045    11.9085 </r>
       <r>    42.4665     0.0130    11.9107 </r>
       <r>    42.6397     0.0239    11.9149 </r>
       <r>    42.8129     0.0472    11.9230 </r>
       <r>    42.9860     0.0826    11.9374 </r>
       <r>    43.1592     0.0508    11.9462 </r>
       <r>    43.3324     0.0870    11.9612 </r>
       <r>    43.5056     0.0204    11.9648 </r>
       <r>    43.6788    -0.0040    11.9641 </r>
       <r>    43.8520    -0.0004    11.9640 </r>
       <r>    44.0252    -0.0002    11.9640 </r>
       <r>    44.1983    -0.0021    11.9636 </r>
       <r>    44.3715     0.0009    11.9638 </r>
       <r>    44.5447     0.0695    11.9758 </r>
       <r>    44.7179     0.1209    11.9967 </r>
       <r>    44.8911     0.0246    12.0010 </r>
       <r>    45.0643    -0.0051    12.0001 </r>
       <r>    45.2375    -0.0006    12.0000 </r>
       <r>    45.4106    -0.0000    12.0000 </r>
       <r>    45.5838    -0.0000    12.0000 </r>
       <r>    45.7570    -0.0000    12.0000 </r>
       <r>    45.9302    -0.0000    12.0000 </r>
       <r>    46.1034     0.0000    12.0000 </r>
       <r>    46.2766     0.0000    12.0000 </r>
       <r>    46.4498     0.0000    12.0000 </r>
       <r>    46.6229     0.0000    12.0000 </r>
       <r>    46.7961     0.0000    12.0000 </r>
       <r>    46.9693     0.0000    12.0000 </r>
       <r>    47.1425     0.0000    12.0000 </r>
      </set>
      <set comment="spin 2">
       <r>    -4.8132     0.0000     0.0000 </r>
       <r>    -4.6400     0.0000     0.0000 </r>
       <r>    -4.4668     0.0000     0.0000 </r>
       <r>    -4.2937     0.0000     0.0000 </r>
       <r>    -4.1205     0.0000     0.0000 </r>
       <r>    -3.9473    -0.0000    -0.0000 </r>
       <r>    -3.7741    -0.0000    -0.0000 </r>
       <r>    -3.6009    -0.0000    -0.0000 </r>
       <r>    -3.4277    -0.0000    -0.0000 </r>
       <r>    -3.2545    -0.0000    -0.0000 </r>
       <r>    -3.0814    -0.0000    -0.0000 </r>
       <r>    -2.9082    -0.0000    -0.0000 </r>
       <r>    -2.7350    -0.0001    -0.0000 </r>
       <r>    -2.5618    -0.0008    -0.0002 </r>
       <r>    -2.3886     0.0027     0.0003 </r>
       <r>    -2.2154     0.0206     0.0039 </r>
       <r>    -2.0422     0.0124     0.0060 </r>
       <r>    -1.8691     0.0187     0.0093 </r>
       <r>    -1.6959     0.0217     0.0130 </r>
       <r>    -1.5227     0.0392     0.0198 </r>
       <r>    -1.3495     0.0895     0.0353 </r>
       <r>    -1.1763     0.0196     0.0387 </r>
       <r>    -1.0031    -0.0085     0.0372 </r>
       <r>    -0.8299     0.0161     0.0400 </r>
       <r>    -0.6568     0.1054     0.0583 </r>
       <r>    -0.4836     0.0680     0.0701 </r>
       <r>    -0.3104     0.0761     0.0832 </r>
       <r>    -0.1372     0.0688     0.0951 </r>
       <r>     0.0360     0.0871     0.1102 </r>
       <r>     0.2092     0.0371     0.1166 </r>
       <r>     0.3824    -0.0124     0.1145 </r>
       <r>     0.5555     0.0499     0.1231 </r>
       <r>     0.7287     0.1890     0.1559 </r>
       <r>     0.9019     0.1310     0.1785 </r>
       <r>     1.0751     0.0896     0.1941 </r>
       <r>     1.2483     0.1739     0.2242 </r>
       <r>     1.4215     0.1022     0.2419 </r>
       <r>     1.5947     0.0832     0.2563 </r>
       <r>     1.7678     0.0343     0.2622 </r>
       <r>     1.9410     0.0946     0.2786 </r>
       <r>     2.1142     0.3975     0.3474 </r>
       <r>     2.2874     0.4433     0.4242 </r>
       <r>     2.4606     0.3003     0.4762 </r>
       <r>     2.6338     0.2308     0.5162 </r>
       <r>     2.8070     0.4050     0.5863 </r>
       <r>     2.9801     0.3903     0.6539 </r>
       <r>     3.1533     0.5169     0.7434 </r>
       <r>     3.3265     0.8539     0.8913 </r>
       <r>     3.4997     0.5009     0.9781 </r>
       <r>     3.6729     0.2555     1.0223 </r>
       <r>     3.8461     0.3698     1.0864 </r>
       <r>     4.0193     0.4618     1.1663 </r>
       <r>     4.1924     0.9925     1.3382 </r>
       <r>     4.3656     1.5287     1.6029 </r>
       <r>     4.5388     1.0930     1.7922 </r>
       <r>     4.7120     1.0723     1.9779 </r>
       <r>     4.8852     1.1855     2.1833 </r>
       <r>     5.0584     1.2517     2.4000 </r>
       <r>     5.2316     1.1964     2.6072 </r>
       <r>     5.4047     0.8882     2.7610 </r>
       <r>     5.5779     0.3276     2.8178 </r>
       <r>     5.7511     0.0930     2.8339 </r>
       <r>     5.9243     0.4862     2.9181 </r>
       <r>     6.0975     0.4711     2.9997 </r>
       <r>     6.2707     0.2102     3.0361 </r>
       <r>     6.4439     0.2232     3.0747 </r>
       <r>     6.6170     0.4133     3.1463 </r>
       <r>     6.7902     0.9286     3.3071 </r>
       <r>     6.9634     0.8983     3.4627 </r>
       <r>     7.1366     0.9823     3.6328 </r>
       <r>     7.3098     1.3770     3.8713 </r>
       <r>     7.4830     1.3634     4.1074 </r>
       <r>     7.6562     1.9061     4.4375 </r>
       <r>     7.8293     2.2809     4.8325 </r>
       <r>     8.0025     1.3874     5.0728 </r>
       <r>     8.1757     0.7146     5.1966 </r>
       <r>     8.3489     0.4374     5.2723 </r>
       <r>     8.5221     0.3810     5.3383 </r>
       <r>     8.6953     0.1535     5.3649 </r>
       <r>     8.8685     0.3124     5.4190 </r>
       <r>     9.0416     0.3145     5.4735 </r>
       <r>     9.2148     0.1837     5.5053 </r>
       <r>     9.3880     0.1175     5.5256 </r>
       <r>     9.5612     0.0876     5.5408 </r>
       <r>     9.7344     0.2029     5.5759 </r>
       <r>     9.9076     0.2209     5.6142 </r>
       <r>    10.0808     0.1164     5.6344 </r>
       <r>    10.2539     0.1681     5.6635 </r>
       <r>    10.4271     0.1051     5.6817 </r>
       <r>    10.6003     0.1562     5.7087 </r>
       <r>    10.7735     0.0798     5.7226 </r>
       <r>    10.9467     0.1049     5.7407 </r>
       <r>    11.1199     0.2741     5.7882 </r>
       <r>    11.2931     0.2183     5.8260 </r>
       <r>    11.4662     0.1042     5.8441 </r>
       <r>    11.6394     0.0030     5.8446 </r>
       <r>    11.8126     0.0289     5.8496 </r>
       <r>    11.9858     0.0296     5.8547 </r>
       <r>    12.1590     0.0274     5.8595 </r>
       <r>    12.3322     0.1613     5.8874 </r>
       <r>    12.5054     0.1054     5.9057 </r>
       <r>    12.6785     0.0723     5.9182 </r>
       <r>    12.8517     0.0952     5.9347 </r>
       <r>    13.0249     0.0845     5.9493 </r>
       <r>    13.1981     0.0279     5.9541 </r>
       <r>    13.3713     0.0794     5.9679 </r>
       <r>    13.5445     0.0585     5.9780 </r>
       <r>    13.7177     0.0555     5.9876 </r>
       <r>    13.8908     0.0285     5.9925 </r>
       <r>    14.0640    -0.0036     5.9919 </r>
       <r>    14.2372    -0.0126     5.9897 </r>
       <r>    14.4104     0.0492     5.9983 </r>
       <r>    14.5836     0.2937     6.0491 </r>
       <r>    14.7568     0.2226     6.0877 </r>
       <r>    14.9300     0.1223     6.1089 </r>
       <r>    15.1031     0.3099     6.1625 </r>
       <r>    15.2763     0.4030     6.2323 </r>
       <r>    15.4495     0.2899     6.2825 </r>
       <r>    15.6227     0.2290     6.3222 </r>
       <r>    15.7959     0.1842     6.3541 </r>
       <r>    15.9691     0.0248     6.3584 </r>
       <r>    16.1423     0.0511     6.3672 </r>
       <r>    16.3154     0.1942     6.4009 </r>
       <r>    16.4886     0.3191     6.4562 </r>
       <r>    16.6618     0.2068     6.4920 </r>
       <r>    16.8350     0.2384     6.5332 </r>
       <r>    17.0082     0.3559     6.5949 </r>
       <r>    17.1814     0.2951     6.6460 </r>
       <r>    17.3546     0.0664     6.6575 </r>
       <r>    17.5277     0.0733     6.6702 </r>
       <r>    17.7009     0.1149     6.6901 </r>
       <r>    17.8741     0.2214     6.7284 </r>
       <r>    18.0473     0.2306     6.7684 </r>
       <r>    18.2205     0.3367     6.8267 </r>
       <r>    18.3937     0.2501     6.8700 </r>
       <r>    18.5669     0.2636     6.9157 </r>
       <r>    18.7400     0.1307     6.9383 </r>
       <r>    18.9132    -0.0027     6.9378 </r>
       <r>    19.0864    -0.0024     6.9374 </r>
       <r>    19.2596     0.1614     6.9654 </r>
       <r>    19.4328     0.3382     7.0239 </r>
       <r>    19.6060     0.2823     7.0728 </r>
       <r>    19.7792     0.0581     7.0829 </r>
       <r>    19.9523     0.1287     7.1052 </r>
       <r>    20.1255     0.2593     7.1501 </r>
       <r>    20.2987     0.2866     7.1997 </r>
       <r>    20.4719     0.3940     7.2680 </r>
       <r>    20.6451     0.2594     7.3129 </r>
       <r>    20.8183     0.1059     7.3312 </r>
       <r>    20.9915     0.0768     7.3445 </r>
       <r>    21.1646     0.0586     7.3547 </r>
       <r>    21.3378     0.2038     7.3900 </r>
       <r>    21.5110     0.2839     7.4391 </r>
       <r>    21.6842     0.1675     7.4681 </r>
       <r>    21.8574     0.0094     7.4698 </r>
       <r>    22.0306     0.1190     7.4904 </r>
       <r>    22.2038     0.2721     7.5375 </r>
       <r>    22.3769     0.1964     7.5715 </r>
       <r>    22.5501     0.0463     7.5795 </r>
       <r>    22.7233     0.0369     7.5859 </r>
       <r>    22.8965     0.1238     7.6074 </r>
       <r>    23.0697     0.2730     7.6546 </r>
       <r>    23.2429     0.3772     7.7200 </r>
       <r>    23.4161     0.3135     7.7743 </r>
       <r>    23.5892     0.2664     7.8204 </r>
       <r>    23.7624     0.3412     7.8795 </r>
       <r>    23.9356     0.4189     7.9521 </r>
       <r>    24.1088     0.2437     7.9943 </r>
       <r>    24.2820     0.2358     8.0351 </r>
       <r>    24.4552     0.1667     8.0640 </r>
       <r>    24.6284     0.2104     8.1004 </r>
       <r>    24.8015     0.4115     8.1717 </r>
       <r>    24.9747     0.3314     8.2291 </r>
       <r>    25.1479     0.2284     8.2686 </r>
       <r>    25.3211     0.0696     8.2807 </r>
       <r>    25.4943     0.0325     8.2863 </r>
       <r>    25.6675     0.1268     8.3083 </r>
       <r>    25.8407     0.3489     8.3687 </r>
       <r>    26.0138     0.3781     8.4342 </r>
       <r>    26.1870     0.2927     8.4849 </r>
       <r>    26.3602     0.2566     8.5293 </r>
       <r>    26.5334     0.2779     8.5774 </r>
       <r>    26.7066     0.4888     8.6621 </r>
       <r>    26.8798     0.3109     8.7159 </r>
       <r>    27.0530     0.1583     8.7433 </r>
       <r>    27.2261     0.2527     8.7871 </r>
       <r>    27.3993     0.2537     8.8310 </r>
       <r>    27.5725     0.1189     8.8516 </r>
       <r>    27.7457     0.0010     8.8518 </r>
       <r>    27.9189     0.0670     8.8634 </r>
       <r>    28.0921     0.1731     8.8933 </r>
       <r>    28.2653     0.3349     8.9513 </r>
       <r>    28.4384     0.3387     9.0100 </r>
       <r>    28.6116     0.1381     9.0339 </r>
       <r>    28.7848     0.0968     9.0507 </r>
       <r>    28.9580     0.1022     9.0684 </r>
       <r>    29.1312     0.1463     9.0937 </r>
       <r>    29.3044     0.0936     9.1099 </r>
       <r>    29.4776     0.0868     9.1250 </r>
       <r>    29.6507     0.2586     9.1697 </r>
       <r>    29.8239     0.2843     9.2190 </r>
       <r>    29.9971     0.2334     9.2594 </r>
       <r>    30.1703     0.0479     9.2677 </r>
       <r>    30.3435     0.0872     9.2828 </r>
       <r>    30.5167     0.1197     9.3035 </r>
       <r>    30.6899     0.2327     9.3438 </r>
       <r>    30.8630     0.3369     9.4022 </r>
       <r>    31.0362     0.6567     9.5159 </r>
       <r>    31.2094     0.7035     9.6378 </r>
       <r>    31.3826     0.3021     9.6901 </r>
       <r>    31.5558     0.0934     9.7063 </r>
       <r>    31.7290    -0.0040     9.7056 </r>
       <r>    31.9022     0.0194     9.7089 </r>
       <r>    32.0753     0.1543     9.7357 </r>
       <r>    32.2485     0.1799     9.7668 </r>
       <r>    32.4217     0.1308     9.7895 </r>
       <r>    32.5949     0.0339     9.7953 </r>
       <r>    32.7681     0.0632     9.8063 </r>
       <r>    32.9413     0.1206     9.8272 </r>
       <r>    33.1145     0.4081     9.8978 </r>
       <r>    33.2876     0.3719     9.9622 </r>
       <r>    33.4608     0.0319     9.9678 </r>
       <r>    33.6340     0.1944    10.0014 </r>
       <r>    33.8072     0.3757    10.0665 </r>
       <r>    33.9804     0.2073    10.1024 </r>
       <r>    34.1536     0.5643    10.2001 </r>
       <r>    34.3268     0.6752    10.3171 </r>
       <r>    34.4999     0.2381    10.3583 </r>
       <r>    34.6731     0.1891    10.3910 </r>
       <r>    34.8463     0.1175    10.4114 </r>
       <r>    35.0195     0.0791    10.4251 </r>
       <r>    35.1927     0.4157    10.4971 </r>
       <r>    35.3659     0.4062    10.5674 </r>
       <r>    35.5391     0.2120    10.6041 </r>
       <r>    35.7122     0.1859    10.6363 </r>
       <r>    35.8854     0.1070    10.6548 </r>
       <r>    36.0586     0.1065    10.6733 </r>
       <r>    36.2318     0.1264    10.6952 </r>
       <r>    36.4050     0.1510    10.7213 </r>
       <r>    36.5782     0.2546    10.7654 </r>
       <r>    36.7514     0.2346    10.8060 </r>
       <r>    36.9245     0.3603    10.8684 </r>
       <r>    37.0977     0.3133    10.9227 </r>
       <r>    37.2709     0.1959    10.9566 </r>
       <r>    37.4441     0.4396    11.0328 </r>
       <r>    37.6173     0.3611    11.0953 </r>
       <r>    37.7905     0.1702    11.1248 </r>
       <r>    37.9637     0.4099    11.1958 </r>
       <r>    38.1368     0.2184    11.2336 </r>
       <r>    38.3100     0.0904    11.2493 </r>
       <r>    38.4832     0.2080    11.2853 </r>
       <r>    38.6564     0.2610    11.3305 </r>
       <r>    38.8296     0.2587    11.3753 </r>
       <r>    39.0028     0.2095    11.4116 </r>
       <r>    39.1760     0.3109    11.4654 </r>
       <r>    39.3491     0.4661    11.5462 </r>
       <r>    39.5223     0.3702    11.6103 </r>
       <r>    39.6955     0.0334    11.6160 </r>
       <r>    39.8687     0.0527    11.6252 </r>
       <r>    40.0419     0.0889    11.6406 </r>
       <r>    40.2151     0.0094    11.6422 </r>
       <r>    40.3883     0.1055    11.6605 </r>
       <r>    40.5614     0.1681    11.6896 </r>
       <r>    40.7346     0.0837    11.7041 </r>
       <r>    40.9078     0.0978    11.7210 </r>
       <r>    41.0810     0.1812    11.7524 </r>
       <r>    41.2542     0.2650    11.7983 </r>
       <r>    41.4274     0.0526    11.8074 </r>
       <r>    41.6006     0.0165    11.8103 </r>
       <r>    41.7737     0.1161    11.8304 </r>
       <r>    41.9469     0.1466    11.8558 </r>
       <r>    42.1201     0.1116    11.8751 </r>
       <r>    42.2933     0.0698    11.8872 </r>
       <r>    42.4665     0.1058    11.9055 </r>
       <r>    42.6397     0.0180    11.9086 </r>
       <r>    42.8129     0.0041    11.9093 </r>
       <r>    42.9860     0.0293    11.9144 </r>
       <r>    43.1592     0.0044    11.9151 </r>
       <r>    43.3324     0.0320    11.9207 </r>
       <r>    43.5056     0.1473    11.9462 </r>
       <r>    43.6788     0.1029    11.9640 </r>
       <r>    43.8520     0.0036    11.9646 </r>
       <r>    44.0252    -0.0041    11.9639 </r>
       <r>    44.1983     0.0001    11.9640 </r>
       <r>    44.3715     0.0152    11.9666 </r>
       <r>    44.5447     0.0174    11.9696 </r>
       <r>    44.7179     0.0782    11.9831 </r>
       <r>    44.8911     0.0938    11.9994 </r>
       <r>    45.0643     0.0071    12.0006 </r>
       <r>    45.2375    -0.0034    12.0000 </r>
       <r>    45.4106    -0.0002    12.0000 </r>
       <r>    45.5838    -0.0000    12.0000 </r>
       <r>    45.7570    -0.0000    12.0000 </r>
       <r>    45.9302    -0.0000    12.0000 </r>
       <r>    46.1034    -0.0000    12.0000 </r>
       <r>    46.2766     0.0000    12.0000 </r>
       <r>    46.4498     0.0000    12.0000 </r>
       <r>    46.6229     0.0000    12.0000 </r>
       <r>    46.7961     0.0000    12.0000 </r>
       <r>    46.9693     0.0000    12.0000 </r>
       <r>    47.1425     0.0000    12.0000 </r>
      </set>
     </set>
    </array>
   </total>
  </dos>
 </calculation>
 <structure name="finalpos" >
  <crystal>
   <varray name="basis" >
    <v>      -1.41999000       1.41999000       1.41999000 </v>
    <v>       1.41999000      -1.41999000       1.41999000 </v>
    <v>       1.41999000       1.41999000      -1.41999000 </v>
   </varray>
   <i name="volume">     11.45291003 </i>
   <varray name="rec_basis" >
    <v>       0.00000000       0.35211516       0.35211516 </v>
    <v>       0.35211516       0.00000000       0.35211516 </v>
    <v>       0.35211516       0.35211516       0.00000000 </v>
   </varray>
  </crystal>
  <varray name="positions" >
   <v>       0.00000000       0.00000000       0.00000000 </v>
  </varray>
 </structure>
</modeling>
