bcc Fe                                  
           1
    -1.419990    1.419990    1.419990
     1.419990   -1.419990    1.419990
     1.419990    1.419990   -1.419990
   Fe
   1
Direct configuration=     1
   0.00000000  0.00000000  0.00000000
